 Entering Gaussian System, Link 0=g16
 Input=CSA_holo_truncated.com
 Output=CSA_holo_truncated.log
 Initial command:
 /usr/local/packages/license/gaussian/g16-c01/g16/l1.exe "/var/scratch/Gau-1526772.inp" -scrdir="/var/scratch/"
 Entering Link 1 = /usr/local/packages/license/gaussian/g16-c01/g16/l1.exe PID=   1526773.
  
 Copyright (c) 1988-2019, Gaussian, Inc.  All Rights Reserved.
  
 This is part of the Gaussian(R) 16 program.  It is based on
 the Gaussian(R) 09 system (copyright 2009, Gaussian, Inc.),
 the Gaussian(R) 03 system (copyright 2003, Gaussian, Inc.),
 the Gaussian(R) 98 system (copyright 1998, Gaussian, Inc.),
 the Gaussian(R) 94 system (copyright 1995, Gaussian, Inc.),
 the Gaussian 92(TM) system (copyright 1992, Gaussian, Inc.),
 the Gaussian 90(TM) system (copyright 1990, Gaussian, Inc.),
 the Gaussian 88(TM) system (copyright 1988, Gaussian, Inc.),
 the Gaussian 86(TM) system (copyright 1986, Carnegie Mellon
 University), and the Gaussian 82(TM) system (copyright 1983,
 Carnegie Mellon University). Gaussian is a federally registered
 trademark of Gaussian, Inc.
  
 This software contains proprietary and confidential information,
 including trade secrets, belonging to Gaussian, Inc.
  
 This software is provided under written license and may be
 used, copied, transmitted, or stored only in accord with that
 written license.
  
 The following legend is applicable only to US Government
 contracts under FAR:
  
                    RESTRICTED RIGHTS LEGEND
  
 Use, reproduction and disclosure by the US Government is
 subject to restrictions as set forth in subparagraphs (a)
 and (c) of the Commercial Computer Software - Restricted
 Rights clause in FAR 52.227-19.
  
 Gaussian, Inc.
 340 Quinnipiac St., Bldg. 40, Wallingford CT 06492
  
  
 ---------------------------------------------------------------
 Warning -- This program may not be used in any manner that
 competes with the business of Gaussian, Inc. or will provide
 assistance to any competitor of Gaussian, Inc.  The licensee
 of this program is prohibited from giving any competitor of
 Gaussian, Inc. access to this program.  By using this program,
 the user acknowledges that Gaussian, Inc. is engaged in the
 business of creating and licensing software in the field of
 computational chemistry and represents and warrants to the
 licensee that it is not a competitor of Gaussian, Inc. and that
 it will not use this program in any manner prohibited above.
 ---------------------------------------------------------------
  

 Cite this work as:
 Gaussian 16, Revision C.01,
 M. J. Frisch, G. W. Trucks, H. B. Schlegel, G. E. Scuseria, 
 M. A. Robb, J. R. Cheeseman, G. Scalmani, V. Barone, 
 G. A. Petersson, H. Nakatsuji, X. Li, M. Caricato, A. V. Marenich, 
 J. Bloino, B. G. Janesko, R. Gomperts, B. Mennucci, H. P. Hratchian, 
 J. V. Ortiz, A. F. Izmaylov, J. L. Sonnenberg, D. Williams-Young, 
 F. Ding, F. Lipparini, F. Egidi, J. Goings, B. Peng, A. Petrone, 
 T. Henderson, D. Ranasinghe, V. G. Zakrzewski, J. Gao, N. Rega, 
 G. Zheng, W. Liang, M. Hada, M. Ehara, K. Toyota, R. Fukuda, 
 J. Hasegawa, M. Ishida, T. Nakajima, Y. Honda, O. Kitao, H. Nakai, 
 T. Vreven, K. Throssell, J. A. Montgomery, Jr., J. E. Peralta, 
 F. Ogliaro, M. J. Bearpark, J. J. Heyd, E. N. Brothers, K. N. Kudin, 
 V. N. Staroverov, T. A. Keith, R. Kobayashi, J. Normand, 
 K. Raghavachari, A. P. Rendell, J. C. Burant, S. S. Iyengar, 
 J. Tomasi, M. Cossi, J. M. Millam, M. Klene, C. Adamo, R. Cammi, 
 J. W. Ochterski, R. L. Martin, K. Morokuma, O. Farkas, 
 J. B. Foresman, and D. J. Fox, Gaussian, Inc., Wallingford CT, 2019.
 
 ******************************************
 Gaussian 16:  ES64L-G16RevC.01  3-Jul-2019
                27-Jan-2026 
 ******************************************
 %nprocshared=64
 Will use up to   64 processors via shared memory.
 %mem=200GB
 -----------------------------
 # 6-31G* wB97XD pop=hirshfeld
 -----------------------------
 1/38=1,172=1/1;
 2/12=2,17=6,18=5,40=1/2;
 3/5=1,6=6,7=1,11=2,25=1,30=1,74=-58/1,2,3;
 4//1;
 5/5=2,38=5/2;
 6/7=2,8=2,9=2,10=2,28=1,79=1/1;
 99/5=1,9=1/99;
 ------------------
 CSA_holo_truncated
 ------------------
 Symbolic Z-matrix:
 Charge = -3 Multiplicity = 1
 H                     46.894    33.749    31.039 
 C                     46.354    34.588    30.601 
 H                     45.954    34.284    29.633 
 C                     45.171    34.947    31.514 
 H                     44.421    34.157    31.449 
 H                     45.513    34.98     32.548 
 C                     44.523    36.28     31.198 
 C                     43.462    36.358    30.277 
 H                     43.097    35.463    29.792 
 C                     42.881    37.608    29.986 
 H                     42.072    37.688    29.28 
 C                     43.359    38.777    30.615 
 O                     42.789    39.973    30.328 
 H                     43.146    40.701    30.896 
 C                     44.424    38.697    31.534 
 H                     44.793    39.596    32.007 
 C                     45.003    37.449    31.821 
 H                     45.826    37.392    32.519 
 C                     47.268    35.8      30.346 
 O                     47.265    36.356    29.248 
 N                     48.114    36.152    31.322 
 H                     48.063    35.649    32.198 
 C                     49.06     37.273    31.205 
 H                     48.495    38.167    30.94 
 C                     49.751    37.519    32.568 
 H                     50.228    36.585    32.873 
 C                     50.856    38.585    32.478 
 H                     51.24     38.803    33.473 
 H                     50.467    39.498    32.029 
 H                     51.675    38.22     31.862 
 C                     48.746    37.905    33.68 
 H                     48.006    37.114    33.786 
 H                     49.284    37.963    34.626 
 C                     48.008    39.236    33.475 
 H                     47.341    39.415    34.319 
 H                     47.415    39.214    32.562 
 H                     48.721    40.056    33.422 
 H                     49.779    37.127    30.399 
 H                     49.262    35.359    26.913 
 C                     48.681    35.487    25.999 
 H                     49.251    35.086    25.163 
 C                     47.36     34.711    26.094 
 H                     46.837    34.833    25.146 
 H                     46.749    35.157    26.88 
 C                     47.498    33.204    26.37 
 H                     48.025    33.043    27.306 
 C                     46.1      32.611    26.516 
 H                     46.162    31.539    26.7 
 H                     45.518    32.802    25.619 
 H                     45.602    33.087    27.359 
 C                     48.257    32.467    25.265 
 H                     48.228    31.392    25.445 
 H                     47.819    32.68     24.291 
 H                     49.298    32.787    25.26 
 C                     48.437    36.973    25.698 
 O                     48.574    37.393    24.551 
 N                     48.151    37.782    26.725 
 H                     48.026    37.355    27.638 
 C                     48.063    39.251    26.62 
 H                     47.333    39.51     25.856 
 C                     47.584    39.847    27.961 
 H                     48.218    39.469    28.763 
 C                     47.639    41.378    27.996 
 H                     48.65     41.735    27.811 
 H                     46.975    41.786    27.239 
 H                     47.331    41.734    28.979 
 C                     46.133    39.441    28.253 
 H                     45.85     39.787    29.245 
 H                     46.021    38.358    28.232 
 H                     45.459    39.877    27.515 
 C                     49.402    39.858    26.18 
 O                     49.439    40.688    25.269 
 N                     50.506    39.411    26.781 
 H                     50.401    38.734    27.532 
 C                     51.864    39.888    26.503 
 H                     51.9      40.963    26.681 
 C                     52.82     39.194    27.482 
 H                     52.475    39.371    28.498 
 H                     52.815    38.12     27.306 
 C                     54.244    39.715    27.356 
 O                     54.455    40.932    27.56 
 O                     55.154    38.917    27.04 
 H                     52.184    39.714    25.476 
 H                     49.768    39.237    22.45 
 C                     48.927    39.653    21.895 
 H                     48.353    40.282    22.576 
 H                     49.31     40.282    21.093 
 H                     48.239    38.927    21.463 
 H                     43.03     34.279    24.371 
 C                     42.526    34.831    25.164 
 H                     42.885    34.47     26.129 
 C                     42.821    36.35     25.07 
 H                     42.602    36.675    24.051 
 C                     41.932    37.164    26.032 
 H                     42.052    36.794    27.05 
 H                     40.883    37.096    25.745 
 H                     42.203    38.219    26.007 
 C                     44.303    36.653    25.374 
 H                     44.486    36.597    26.449 
 H                     44.924    35.904    24.895 
 C                     44.756    38.021    24.847 
 H                     45.836    38.101    24.946 
 H                     44.5      38.122    23.793 
 H                     44.29     38.825    25.414 
 H                     41.453    34.642    25.125 
 H                     37.816    32.635    28.063 
 C                     36.813    32.932    28.368 
 H                     36.788    33.003    29.453 
 C                     36.495    34.322    27.802 
 H                     36.782    34.37     26.75 
 H                     35.419    34.49     27.849 
 C                     37.173    35.432    28.576 
 C                     38.368    36.015    28.116 
 H                     38.805    35.693    27.184 
 C                     39.002    37.012    28.882 
 H                     39.925    37.451    28.54 
 C                     38.431    37.439    30.1 
 O                     39.022    38.412    30.835 
 H                     39.527    39.016    30.269 
 C                     37.231    36.859    30.551 
 H                     36.789    37.193    31.475 
 C                     36.613    35.852    29.794 
 H                     35.715    35.387    30.164 
 H                     36.045    32.213    28.083 
 H                     33.371    40.886    31.287 
 C                     34.276    41.437    31.542 
 H                     34.736    40.964    32.408 
 C                     35.329    41.409    30.412 
 H                     34.912    41.868    29.522 
 C                     36.59     42.19     30.805 
 H                     37.353    42.085    30.032 
 H                     36.363    43.252    30.902 
 H                     36.983    41.82     31.751 
 C                     35.75     39.982    30.045 
 H                     34.897    39.425    29.662 
 H                     36.521    40.004    29.274 
 H                     36.137    39.474    30.925 
 C                     33.92     42.867    31.938 
 O                     33.285    43.589    31.171 
 N                     34.33     43.265    33.141 
 H                     34.834    42.592    33.708 
 C                     34.188    44.613    33.699 
 H                     33.517    45.213    33.082 
 C                     33.589    44.53     35.114 
 H                     34.203    43.86     35.715 
 H                     33.623    45.518    35.568 
 C                     32.141    44.022    35.132 
 H                     32.072    43.11     34.536 
 H                     31.489    44.776    34.683 
 C                     31.678    43.703    36.556 
 O                     31.76     42.522    36.968 
 O                     31.247    44.616    37.293 
 C                     35.561    45.3      33.719 
 O                     36.342    45.114    34.656 
 N                     35.862    46.068    32.669 
 H                     35.194    46.158    31.92 
 C                     37.164    46.712    32.465 
 H                     37.702    46.708    33.408 
 C                     38.012    45.866    31.501 
 H                     37.476    45.756    30.556 
 H                     38.152    44.872    31.929 
 C                     39.39     46.483    31.233 
 O                     39.869    47.281    32.069 
 O                     39.965    46.175    30.17 
 C                     37.034    48.169    31.954 
 O                     36.446    48.386    30.887 
 N                     37.583    49.166    32.681 
 C                     37.861    50.494    32.165 
 H                     38.806    50.465    31.625 
 H                     37.075    50.85     31.502 
 C                     37.994    51.401    33.386 
 H                     38.695    52.214    33.202 
 H                     37.018    51.795    33.664 
 C                     38.498    50.461    34.481 
 H                     38.15     50.775    35.464 
 H                     39.584    50.44     34.472 
 C                     37.95     49.082    34.098 
 H                     38.739    48.343    34.241 
 C                     36.742    48.721    34.973 
 O                     35.601    49.063    34.658 
 N                     36.976    48.091    36.125 
 H                     37.918    47.766    36.32 
 C                     35.909    47.832    37.091 
 H                     35.159    47.213    36.594 
 C                     36.438    47.044    38.296 
 H                     37.231    47.612    38.783 
 H                     36.868    46.103    37.946 
 C                     35.343    46.741    39.3 
 C                     34.414    45.719    39.029 
 H                     34.496    45.134    38.124 
 C                     33.34     45.493    39.906 
 H                     32.601    44.74     39.67 
 C                     33.191    46.28     41.058 
 H                     32.348    46.122    41.717 
 C                     34.113    47.302    41.33 
 H                     33.964    47.914    42.203 
 C                     35.185    47.54     40.45 
 H                     35.883    48.341    40.644 
 H                     35.427    48.764    37.386 
 H                     36.873    43.909    22.239 
 C                     37.317    44.529    23.018 
 H                     37.149    45.578    22.772 
 C                     36.592    44.235    24.336 
 H                     36.725    43.185    24.596 
 H                     35.524    44.402    24.187 
 C                     37.046    45.083    25.504 
 C                     36.348    46.261    25.834 
 H                     35.492    46.567    25.251 
 C                     36.756    47.039    26.933 
 H                     36.211    47.933    27.204 
 C                     37.87     46.645    27.693 
 H                     38.182    47.229    28.55 
 C                     38.57     45.473    27.36 
 H                     39.418    45.164    27.959 
 C                     38.154    44.685    26.275 
 H                     38.687    43.771    26.05 
 C                     38.837    44.324    23.139 
 O                     39.584    45.306    23.098 
 N                     39.319    43.077    23.22 
 H                     38.668    42.298    23.286 
 C                     40.763    42.802    23.272 
 H                     41.202    43.43     24.05 
 C                     41.04     41.339    23.64 
 H                     40.415    40.685    23.03 
 H                     42.08     41.111    23.405 
 C                     40.846    41.03     25.111 
 C                     39.846    40.131    25.525 
 H                     39.207    39.66     24.794 
 C                     39.684    39.844    26.892 
 H                     38.928    39.157    27.227 
 C                     40.523    40.447    27.847 
 O                     40.381    40.128    29.157 
 H                     41.223    40.29     29.622 
 C                     41.532    41.341    27.435 
 H                     42.173    41.81     28.169 
 C                     41.69     41.632    26.068 
 H                     42.459    42.329    25.761 
 C                     41.483    43.169    21.97 
 O                     42.615    43.648    22.028 
 N                     40.838    43.029    20.8 
 H                     39.928    42.576    20.8 
 C                     41.395    43.524    19.526 
 H                     42.369    43.062    19.353 
 C                     40.466    43.187    18.354 
 H                     39.447    43.463    18.629 
 H                     40.752    43.788    17.49 
 C                     40.522    41.709    17.943 
 H                     41.454    41.5      17.416 
 H                     40.464    41.083    18.83 
 C                     39.325    41.421    17.035 
 H                     38.447    41.82     17.54 
 H                     39.439    41.963    16.1 
 N                     39.123    39.984    16.758 
 H                     39.93     39.42     16.551 
 C                     37.941    39.391    16.741 
 N                     36.842    40.076    16.847 
 H                     36.88     41.085    16.764 
 H                     35.939    39.626    16.889 
 N                     37.81     38.101    16.636 
 H                     38.586    37.515    16.367 
 H                     36.873    37.718    16.603 
 C                     41.641    45.03     19.562 
 O                     42.691    45.464    19.097 
 N                     40.721    45.823    20.121 
 H                     39.872    45.4      20.472 
 C                     40.928    47.267    20.313 
 H                     41.23     47.714    19.364 
 C                     39.633    47.954    20.772 
 H                     39.867    48.975    21.079 
 H                     39.244    47.428    21.643 
 C                     38.543    48.023    19.694 
 H                     38.776    48.817    18.985 
 H                     38.494    47.081    19.149 
 C                     37.188    48.294    20.335 
 O                     36.832    49.423    20.648 
 N                     36.427    47.262    20.605 
 H                     36.75     46.338    20.35 
 H                     35.536    47.398    21.065 
 C                     42.048    47.554    21.324 
 O                     42.932    48.359    21.035 
 N                     42.047    46.881    22.48 
 H                     41.286    46.236    22.662 
 C                     43.019    47.115    23.555 
 H                     42.744    46.512    24.422 
 H                     42.989    48.165    23.846 
 C                     44.453    46.754    23.157 
 O                     45.343    47.607    23.168 
 N                     44.668    45.501    22.747 
 H                     43.867    44.878    22.708 
 C                     45.983    44.912    22.455 
 H                     46.725    45.398    23.087 
 C                     45.958    43.41     22.817 
 H                     45.338    42.891    22.085 
 H                     46.973    43.018    22.73 
 C                     45.425    43.066    24.222 
 H                     44.379    43.361    24.3 
 C                     45.512    41.558    24.453 
 H                     45.104    41.317    25.435 
 H                     44.927    41.036    23.697 
 H                     46.55     41.229    24.401 
 C                     46.219    43.765    25.322 
 H                     47.266    43.46     25.287 
 H                     46.143    44.845    25.209 
 H                     45.79     43.506    26.289 
 C                     46.459    45.108    21.004 
 O                     47.549    44.646    20.654 
 N                     45.663    45.75     20.143 
 H                     44.77     46.076    20.486 
 C                     45.882    45.789    18.692 
 H                     45.846    44.773    18.298 
 H                     45.068    46.349    18.238 
 C                     47.188    46.441    18.224 
 O                     47.755    45.997    17.227 
 N                     47.725    47.422    18.958 
 H                     47.239    47.723    19.796 
 C                     48.878    48.229    18.53 
 H                     49.037    49.02     19.263 
 H                     48.638    48.701    17.577 
 C                     50.209    47.482    18.36 
 O                     51.169    48.072    17.868 
 N                     50.296    46.203    18.748 
 H                     49.468    45.765    19.126 
 C                     51.51     45.384    18.615 
 H                     51.262    44.351    18.861 
 H                     51.859    45.421    17.582 
 C                     52.655    45.83     19.533 
 O                     53.823    45.606    19.215 
 N                     52.325    46.501    20.641 
 H                     51.332    46.563    20.825 
 C                     53.245    47.177    21.576 
 H                     54.231    46.718    21.514 
 C                     53.35     48.668    21.191 
 H                     52.347    49.053    21. 
 H                     53.752    49.236    22.032 
 C                     54.231    48.977    19.969 
 H                     54.099    50.037    19.749 
 H                     53.89     48.419    19.097 
 C                     55.735    48.746    20.203 
 H                     55.962    48.815    21.268 
 H                     56.269    49.552    19.701 
 C                     56.24     47.407    19.646 
 H                     55.928    47.32     18.602 
 H                     55.78     46.586    20.202 
 N                     57.716    47.311    19.735 
 H                     58.056    46.435    19.354 
 H                     58.023    47.368    20.706 
 H                     58.148    48.069    19.216 
 C                     52.842    47.044    23.05 
 O                     53.592    47.495    23.909 
 N                     51.687    46.444    23.352 
 H                     51.161    46.003    22.608 
 C                     51.26     46.169    24.731 
 H                     51.5      47.036    25.342 
 C                     49.74     45.936    24.835 
 H                     49.47     45.044    24.272 
 C                     49.318    45.725    26.294 
 H                     49.786    44.831    26.705 
 H                     49.591    46.593    26.896 
 H                     48.241    45.584    26.338 
 C                     48.936    47.115    24.268 
 H                     49.186    48.032    24.799 
 H                     49.144    47.242    23.206 
 H                     47.87     46.925    24.385 
 C                     52.032    44.963    25.267 
 O                     52.018    43.898    24.646 
 N                     52.688    45.112    26.42 
 H                     52.702    46.046    26.826 
 C                     53.485    44.06     27.077 
 H                     53.324    43.103    26.578 
 C                     54.982    44.417    26.982 
 H                     55.566    43.649    27.49 
 H                     55.15     45.36     27.504 
 C                     55.503    44.567    25.538 
 H                     56.522    44.956    25.57 
 H                     54.899    45.3      25.005 
 C                     55.499    43.252    24.746 
 H                     54.538    42.75     24.865 
 H                     55.621    43.486    23.688 
 N                     56.604    42.377    25.174 
 H                     57.416    42.814    25.583 
 C                     56.641    41.061    25.159 
 N                     55.689    40.306    24.706 
 H                     54.804    40.734    24.469 
 H                     55.639    39.4      25.156 
 N                     57.683    40.465    25.64 
 H                     58.433    41.023    26.02 
 H                     57.749    39.455    25.596 
 C                     53.027    43.883    28.522 
 O                     52.898    44.871    29.241 
 N                     52.796    42.65     28.968 
 H                     53.105    41.876    28.387 
 C                     52.152    42.334    30.246 
 H                     52.042    43.253    30.817 
 C                     50.739    41.811    29.969 
 H                     50.205    41.672    30.91 
 H                     50.786    40.857    29.442 
 H                     50.195    42.532    29.36 
 C                     52.971    41.356    31.107 
 O                     53.471    40.341    30.622 
 N                     53.08     41.633    32.408 
 H                     52.662    42.487    32.767 
 C                     53.824    40.797    33.354 
 H                     53.816    39.769    32.995 
 C                     55.294    41.253    33.406 
 H                     55.754    41.096    32.429 
 H                     55.832    40.644    34.136 
 S                     55.457    43.006    33.868 
 H                     56.766    42.961    34.171 
 H                     53.364    40.786    34.342 
 H                     45.385    38.478    40.466 
 C                     46.435    38.561    40.187 
 H                     47.024    38.055    40.946 
 C                     46.705    37.799    38.884 
 H                     46.376    36.769    39.019 
 H                     47.78     37.788    38.71 
 C                     46.02     38.364    37.635 
 H                     46.423    39.347    37.394 
 H                     44.953    38.463    37.834 
 S                     46.25     37.274    36.209 
 C                     44.772    37.648    35.233 
 H                     43.886    37.601    35.864 
 H                     44.861    38.641    34.791 
 H                     44.672    36.907    34.441 
 H                     46.78     39.593    40.13 
 H                     49.621    42.621    38.075 
 C                     50.213    42.685    37.162 
 H                     51.215    42.308    37.365 
 C                     49.593    41.772    36.084 
 H                     50.313    41.628    35.284 
 H                     49.42     40.787    36.515 
 C                     48.301    42.242    35.45 
 C                     48.285    42.673    34.108 
 H                     49.202    42.72     33.537 
 C                     47.066    43.002    33.489 
 H                     47.032    43.304    32.451 
 C                     45.872    42.938    34.22 
 H                     44.937    43.216    33.756 
 C                     45.894    42.535    35.564 
 H                     44.977    42.519    36.121 
 C                     47.1      42.17     36.176 
 H                     47.099    41.837    37.202 
 C                     50.404    44.13     36.699 
 O                     49.799    45.068    37.233 
 N                     51.275    44.291    35.706 
 H                     51.765    43.461    35.376 
 C                     51.54     45.542    34.998 
 H                     50.791    46.282    35.28 
 C                     52.922    46.07     35.412 
 H                     52.877    46.355    36.464 
 H                     53.658    45.271    35.304 
 C                     53.388    47.272    34.574 
 H                     53.564    46.945    33.55 
 H                     52.619    48.047    34.567 
 C                     54.694    47.854    35.116 
 H                     55.121    48.504    34.35 
 H                     55.402    47.047    35.314 
 N                     54.455    48.633    36.34 
 H                     53.565    48.512    36.823 
 C                     55.24     49.549    36.863 
 N                     56.443    49.784    36.425 
 H                     56.831    49.205    35.69 
 H                     57.016    50.495    36.87 
 N                     54.806    50.241    37.868 
 H                     53.856    50.074    38.193 
 H                     55.352    50.982    38.263 
 C                     51.422    45.318    33.496 
 O                     51.931    44.324    32.973 
 N                     50.802    46.275    32.814 
 H                     50.415    47.054    33.34 
 C                     50.84     46.417    31.354 
 H                     51.355    45.556    30.939 
 C                     49.432    46.423    30.726 
 H                     49.542    46.494    29.643 
 C                     48.708    45.113    31.041 
 H                     48.515    45.046    32.111 
 H                     49.314    44.266    30.727 
 H                     47.754    45.081    30.516 
 C                     48.552    47.583    31.195 
 H                     48.427    47.558    32.277 
 H                     47.57     47.511    30.729 
 H                     49.006    48.526    30.9 
 C                     51.663    47.65     30.978 
 O                     51.706    48.628    31.721 
 N                     52.354    47.596    29.846 
 H                     52.337    46.731    29.317 
 C                     53.236    48.657    29.347 
 H                     53.03     49.583    29.882 
 C                     54.71     48.293    29.58 
 H                     55.324    49.122    29.225 
 H                     54.962    47.403    29.001 
 C                     55.033    48.039    31.06 
 H                     54.59     47.091    31.373 
 H                     54.6      48.839    31.662 
 C                     56.541    47.986    31.301 
 O                     57.26     47.259    30.579 
 O                     57.041    48.683    32.215 
 C                     52.966    48.91     27.863 
 O                     52.826    47.956    27.096 
 N                     52.855    50.184    27.472 
 H                     53.088    50.911    28.143 
 C                     52.401    50.618    26.143 
 H                     52.944    50.043    25.391 
 C                     50.895    50.288    25.98 
 H                     50.758    49.21     26.051 
 H                     50.59     50.561    24.97 
 C                     49.929    50.957    26.971 
 H                     50.274    51.96     27.212 
 H                     48.966    51.057    26.471 
 S                     49.632    50.019    28.497 
 C                     50.311    51.132    29.752 
 H                     51.351    51.355    29.525 
 H                     49.734    52.057    29.775 
 H                     50.253    50.651    30.727 
 C                     52.738    52.109    25.901 
 O                     53.746    52.61     26.404 
 N                     51.929    52.823    25.104 
 H                     51.105    52.371    24.737 
 C                     52.113    54.245    24.763 
 H                     52.889    54.659    25.406 
 C                     52.586    54.407    23.3 
 H                     51.81     54.021    22.638 
 C                     52.848    55.872    22.927 
 H                     53.665    56.262    23.528 
 H                     53.131    55.94     21.877 
 H                     51.955    56.476    23.077 
 C                     53.885    53.635    23.02 
 H                     54.664    53.958    23.71 
 H                     53.718    52.565    23.141 
 H                     54.207    53.814    21.993 
 C                     50.823    55.037    25.024 
 O                     49.751    54.662    24.544 
 N                     50.936    56.159    25.737 
 H                     51.87     56.41     26.053 
 C                     49.863    57.09     26.119 
 H                     48.942    56.846    25.588 
 C                     49.61     56.974    27.63 
 H                     49.044    56.062    27.825 
 H                     50.574    56.887    28.132 
 C                     48.898    58.132    28.26 
 C                     49.49     59.094    29.004 
 H                     50.548    59.123    29.24 
 N                     48.553    60.036    29.381 
 H                     48.772    60.846    29.944 
 C                     47.307    59.742    28.868 
 C                     46.07     60.399    28.925 
 H                     45.971    61.334    29.458 
 C                     44.969    59.834    28.259 
 H                     44.011    60.334    28.267 
 C                     45.119    58.621    27.562 
 H                     44.272    58.188    27.05 
 C                     46.367    57.974    27.506 
 H                     46.471    57.054    26.949 
 C                     47.494    58.518    28.156 
 H                     50.144    58.113    25.868 
 H                     54.375    54.486    28.881 
 C                     53.834    54.416    29.825 
 H                     54.389    54.974    30.579 
 C                     52.461    55.088    29.658 
 H                     51.964    55.136    30.628 
 H                     52.601    56.105    29.287 
 S                     51.418    54.152    28.506 
 H                     50.288    54.833    28.725 
 C                     53.703    52.978    30.358 
 O                     53.891    51.99     29.643 
 N                     53.339    52.887    31.635 
 H                     53.173    53.755    32.137 
 C                     53.015    51.669    32.365 
 H                     52.853    50.857    31.659 
 C                     54.194    51.296    33.27 
 H                     54.388    52.102    33.979 
 H                     55.085    51.116    32.667 
 H                     53.947    50.394    33.826 
 C                     51.718    51.865    33.166 
 O                     51.376    52.986    33.545 
 N                     50.992    50.779    33.414 
 H                     51.306    49.895    33.027 
 C                     49.755    50.767    34.187 
 H                     49.737    51.638    34.84 
 C                     48.566    50.866    33.214 
 H                     48.674    50.074    32.479 
 H                     48.615    51.819    32.686 
 C                     47.18     50.72     33.865 
 H                     47.159    49.828    34.485 
 C                     46.834    51.925    34.736 
 H                     47.556    52.006    35.543 
 H                     46.843    52.838    34.142 
 H                     45.848    51.784    35.174 
 C                     46.119    50.57     32.779 
 H                     46.347    49.703    32.158 
 H                     46.078    51.465    32.161 
 H                     45.147    50.4      33.239 
 C                     49.718    49.514    35.066 
 O                     49.799    48.389    34.571 
 N                     49.597    49.711    36.375 
 H                     49.544    50.665    36.709 
 C                     49.451    48.628    37.347 
 H                     50.       47.755    36.99 
 C                     50.081    49.049    38.681 
 H                     49.527    49.893    39.089 
 H                     50.002    48.225    39.384 
 C                     51.559    49.415    38.548 
 O                     52.376    48.515    38.242 
 O                     51.932    50.588    38.79 
 C                     47.973    48.234    37.513 
 O                     47.147    49.049    37.917 
 N                     47.637    46.962    37.278 
 H                     48.369    46.327    36.969 
 C                     46.253    46.438    37.253 
 H                     45.57     47.208    37.613 
 C                     45.827    46.098    35.801 
 H                     46.436    45.264    35.46 
 C                     44.344    45.709    35.69 
 H                     44.074    45.573    34.641 
 H                     44.148    44.766    36.193 
 H                     43.717    46.489    36.117 
 C                     46.063    47.258    34.825 
 H                     45.698    46.991    33.831 
 H                     47.128    47.466    34.738 
 H                     45.54     48.15     35.165 
 C                     46.114    45.222    38.183 
 O                     47.102    44.537    38.464 
 N                     44.908    44.962    38.701 
 H                     44.151    45.607    38.487 
 C                     44.549    43.701    39.371 
 H                     45.358    42.993    39.217 
 C                     44.366    43.87     40.902 
 H                     43.757    44.757    41.08 
 C                     43.655    42.654    41.536 
 H                     43.596    42.761    42.617 
 H                     42.631    42.576    41.17 
 H                     44.193    41.736    41.298 
 C                     45.736    44.056    41.586 
 H                     46.326    44.763    41.011 
 H                     46.265    43.104    41.595 
 C                     45.666    44.59     43.019 
 H                     45.093    45.516    43.043 
 H                     46.679    44.79     43.359 
 H                     45.214    43.859    43.688 
 C                     43.308    43.115    38.7 
 O                     42.228    43.695    38.78 
 N                     43.45     41.947    38.075 
 H                     44.355    41.497    38.107 
 C                     42.317    41.201    37.522 
 H                     41.51     41.891    37.276 
 C                     42.698    40.456    36.238 
 H                     43.649    39.949    36.386 
 H                     41.941    39.702    36.023 
 C                     42.804    41.346    35.01 
 O                     42.619    42.555    35.005 
 O                     43.149    40.655    33.906 
 H                     43.253    41.284    33.145 
 C                     41.8      40.203    38.552 
 O                     42.587    39.456    39.139 
 N                     40.479    40.151    38.715 
 H                     39.923    40.858    38.239 
 C                     39.76     39.18     39.55 
 H                     40.473    38.52     40.041 
 C                     38.954    39.903    40.645 
 H                     38.204    40.535    40.174 
 C                     38.235    38.908    41.556 
 H                     37.683    39.455    42.32 
 H                     38.961    38.249    42.033 
 H                     37.525    38.311    40.986 
 C                     39.841    40.798    41.521 
 H                     40.319    41.567    40.915 
 H                     40.606    40.202    42.016 
 H                     39.228    41.298    42.268 
 C                     38.854    38.334    38.655 
 O                     38.025    38.884    37.93 
 N                     39.001    37.009    38.682 
 H                     39.638    36.614    39.369 
 C                     38.331    36.071    37.764 
 H                     37.627    36.609    37.132 
 C                     39.372    35.395    36.851 
 H                     38.897    34.572    36.315 
 H                     40.17     34.978    37.468 
 C                     39.98     36.344    35.815 
 H                     40.365    37.231    36.319 
 H                     39.191    36.646    35.126 
 S                     41.332    35.602    34.859 
 C                     41.641    36.911    33.641 
 H                     41.86     37.853    34.145 
 H                     42.493    36.633    33.022 
 H                     40.769    37.033    32.999 
 H                     37.775    35.302    38.3 
 H                     36.982    31.484    32.159 
 C                     36.768    32.394    32.719 
 H                     36.875    32.185    33.784 
 C                     37.752    33.532    32.352 
 H                     37.587    33.794    31.309 
 C                     37.45     34.768    33.215 
 H                     36.452    35.15     33.002 
 H                     38.164    35.563    33.003 
 H                     37.513    34.513    34.274 
 C                     39.242    33.147    32.504 
 H                     39.399    32.115    32.196 
 H                     39.541    33.238    33.549 
 C                     40.164    34.01     31.63 
 H                     39.895    33.894    30.579 
 H                     40.081    35.06     31.902 
 H                     41.198    33.691    31.769 
 H                     35.735    32.679    32.517 
 H                     35.576    38.527    34.714 
 C                     36.5      39.053    34.953 
 H                     36.935    38.556    35.815 
 C                     37.518    38.931    33.805 
 H                     37.551    37.886    33.502 
 H                     37.198    39.529    32.954 
 C                     38.947    39.326    34.209 
 H                     39.134    38.961    35.218 
 H                     39.634    38.809    33.542 
 S                     39.386    41.083    34.159 
 C                     39.951    41.256    32.443 
 H                     39.148    40.989    31.758 
 H                     40.806    40.602    32.271 
 H                     40.254    42.288    32.259 
 C                     36.239    40.512    35.352 
 O                     35.324    41.154    34.83 
 N                     37.026    41.031    36.295 
 H                     37.721    40.421    36.709 
 C                     36.95     42.397    36.82 
 H                     36.355    43.017    36.15 
 C                     36.27     42.371    38.203 
 H                     36.867    41.767    38.884 
 H                     36.221    43.388    38.594 
 C                     34.853    41.787    38.14 
 H                     34.268    42.397    37.458 
 H                     34.879    40.77     37.753 
 C                     34.149    41.72     39.485 
 O                     34.688    41.294    40.502 
 N                     32.889    42.071    39.527 
 H                     32.421    42.353    38.663 
 H                     32.375    41.963    40.381 
 C                     38.359    42.999    36.906 
 O                     39.171    42.536    37.711 
 N                     38.653    44.005    36.077 
 H                     37.931    44.342    35.446 
 C                     39.963    44.652    35.992 
 H                     40.732    43.971    36.361 
 C                     40.276    44.933    34.52 
 H                     41.264    45.386    34.429 
 H                     39.536    45.614    34.105 
 H                     40.269    44.005    33.95 
 C                     39.998    45.925    36.853 
 O                     39.557    47.       36.442 
 N                     40.506    45.818    38.078 
 H                     40.902    44.926    38.356 
 C                     40.667    46.954    38.984 
 H                     39.77     47.572    38.938 
 C                     40.814    46.455    40.431 
 H                     41.113    47.294    41.06 
 H                     41.609    45.71     40.482 
 C                     39.534    45.863    40.993 
 C                     39.171    44.533    40.7 
 H                     39.827    43.911    40.103 
 C                     37.929    44.028    41.13 
 H                     37.627    43.025    40.87 
 C                     37.048    44.854    41.857 
 O                     35.805    44.41     42.18 
 H                     35.144    45.077    41.953 
 C                     37.433    46.168    42.196 
 H                     36.76     46.788    42.764 
 C                     38.671    46.674    41.757 
 H                     38.946    47.695    41.976 
 C                     41.86     47.813    38.543 
 O                     43.009    47.382    38.659 
 N                     41.569    49.027    38.061 
 H                     40.588    49.237    37.928 
 C                     42.518    50.112    37.763 
 H                     43.176    50.247    38.624 
 C                     43.395    49.75     36.549 
 H                     44.203    50.48     36.491 
 H                     43.875    48.79     36.725 
 C                     42.722    49.712    35.206 
 C                     42.07     48.65     34.682 
 H                     41.948    47.688    35.161 
 N                     41.58     48.968    33.432 
 H                     41.038    48.31     32.853 
 C                     41.877    50.265    33.085 
 C                     41.597    51.04     31.95 
 H                     41.059    50.6      31.122 
 C                     42.033    52.375    31.906 
 H                     41.825    52.982    31.037 
 C                     42.755    52.909    32.988 
 H                     43.11     53.929    32.943 
 C                     43.043    52.115    34.117 
 H                     43.634    52.52     34.921 
 C                     42.598    50.776    34.205 
 C                     41.799    51.451    37.492 
 O                     40.609    51.497    37.15 
 N                     42.542    52.553    37.596 
 H                     43.493    52.461    37.934 
 C                     42.195    53.859    37.015 
 H                     41.71     53.702    36.051 
 C                     41.211    54.624    37.91 
 H                     40.352    53.993    38.134 
 H                     40.855    55.504    37.379 
 O                     41.814    55.033    39.115 
 H                     41.637    54.316    39.757 
 C                     43.469    54.676    36.758 
 O                     44.582    54.191    36.963 
 N                     43.333    55.921    36.304 
 H                     42.394    56.286    36.159 
 C                     44.451    56.821    35.991 
 H                     45.079    56.318    35.255 
 C                     43.896    58.093    35.328 
 H                     44.749    58.656    34.944 
 H                     43.287    57.815    34.467 
 C                     43.09     59.04     36.238 
 H                     42.967    59.973    35.692 
 H                     43.669    59.265    37.136 
 C                     41.682    58.572    36.634 
 O                     41.122    57.608    36.061 
 O                     41.075    59.204    37.523 
 H                     45.105    57.052    36.832 
 H                     47.132    54.522    38.635 
 C                     47.86     53.724    38.486 
 H                     48.551    53.752    39.323 
 C                     47.12     52.37     38.531 
 H                     46.381    52.322    37.733 
 H                     47.84     51.569    38.373 
 C                     46.423    52.107    39.856 
 O                     45.201    52.051    39.949 
 N                     47.185    51.967    40.919 
 H                     48.196    52.023    40.816 
 H                     46.754    51.898    41.834 
 C                     48.741    53.883    37.223 
 O                     49.581    53.022    36.947 
 N                     48.542    54.953    36.44 
 H                     47.88     55.647    36.758 
 C                     49.23     55.22     35.169 
 H                     49.461    54.269    34.687 
 C                     48.24     55.987    34.264 
 H                     47.9      56.867    34.811 
 H                     47.372    55.352    34.086 
 C                     48.788    56.471    32.906 
 H                     49.638    57.133    33.064 
 C                     49.22     55.323    31.995 
 H                     48.408    54.605    31.879 
 H                     49.505    55.713    31.019 
 H                     50.085    54.823    32.427 
 C                     47.701    57.263    32.176 
 H                     46.84     56.625    31.979 
 H                     47.392    58.109    32.789 
 H                     48.092    57.64     31.231 
 H                     50.165    55.761    35.314 
 C                     43.927    42.973    31.198 
 O                     43.552    41.94     31.766 
 C                     43.492    44.204    31.651 
 C                     43.923    45.378    31.022 
 C                     44.818    45.332    29.927 
 C                     45.252    44.069    29.468 
 C                     44.793    42.905    30.106 
 C                     43.444    46.606    31.491 
 C                     43.852    47.803    30.891 
 C                     44.741    47.775    29.804 
 C                     45.242    46.54     29.315 
 C                     45.245    49.064    29.173 
 C                     45.47     48.921    27.653 
 C                     46.595    47.875    27.474 
 C                     46.193    46.505    28.097 
 C                     44.472    50.388    29.34 
 C                     45.184    51.326    28.331 
 C                     45.793    50.382    27.291 
 O                     46.342    50.776    26.27 
 C                     44.215    48.487    26.83 
 H                     45.94     43.972    28.635 
 H                     45.113    41.931    29.765 
 H                     42.741    46.625    32.319 
 H                     43.477    48.745    31.282 
 H                     46.226    49.257    29.633 
 H                     47.506    48.23     27.967 
 H                     46.839    47.754    26.412 
 H                     45.709    45.917    27.309 
 H                     47.109    45.965    28.361 
 H                     44.519    50.773    30.366 
 H                     42.804    44.243    32.486 
 H                     43.416    50.251    29.072 
 H                     45.997    51.88     28.816 
 H                     44.485    52.024    27.858 
 H                     43.381    49.188    26.959 
 H                     44.462    48.446    25.764 
 H                     43.851    47.497    27.122 
 O                     41.946    46.503    28.614 
 H                     42.547    46.778    29.338 
 H                     41.123    46.351    29.175 
 O                     44.439    51.076    24.402 
 H                     44.559    50.253    23.905 
 H                     45.206    51.033    25.018 
 O                     43.129    44.745    26.957 
 H                     42.587    45.436    27.421 
 H                     43.577    44.354    27.727 
 O                     42.611    54.716    27.047 
 H                     43.569    54.746    27.188 
 H                     42.558    54.075    26.298 
 O                     42.526    52.853    25.046 
 H                     43.213    52.144    24.902 
 H                     42.457    53.158    24.103 
 O                     40.771    51.72     27.021 
 H                     41.438    52.043    26.391 
 H                     40.665    52.497    27.604 
 O                     40.289    53.983    28.559 
 H                     41.182    54.363    28.46 
 H                     40.083    54.252    29.484 
 O                     46.865    48.965    21.389 
 H                     46.377    48.488    22.098 
 H                     46.108    49.421    20.949 
 O                     48.589    51.064    21.765 
 H                     48.073    50.256    21.533 
 H                     48.232    51.257    22.644 
 O                     38.437    50.458    27.216 
 H                     38.552    49.836    27.957 
 H                     39.367    50.802    27.143 
 O                     38.964    47.543    24.629 
 H                     38.881    47.127    25.508 
 H                     39.291    46.79     24.1 
 O                     39.816    54.07     25.016 
 H                     40.525    53.455    24.771 
 H                     39.288    54.094    24.189 
 O                     44.731    50.047    20.114 
 H                     44.655    49.858    19.146 
 H                     44.02     49.443    20.444 
 O                     40.577    56.529    26.929 
 H                     41.026    57.345    26.613 
 H                     41.351    55.915    26.933 
 O                     42.199    53.537    22.443 
 H                     42.771    53.101    21.763 
 H                     41.316    53.239    22.104 
 O                     37.432    49.759    24.821 
 H                     37.95     48.92     24.68 
 H                     37.809    50.005    25.705 
 O                     39.609    55.179    30.943 
 H                     39.825    56.107    30.69 
 H                     38.658    55.29     31.171 
 O                     50.074    44.731    21.607 
 H                     49.135    44.67     21.336 
 H                     50.134    43.922    22.174 
 O                     43.861    52.609    20.47 
 H                     43.92     52.763    19.496 
 H                     44.22     51.686    20.494 
 O                     44.903    55.007    21.28 
 H                     44.266    55.375    21.929 
 H                     44.605    54.073    21.245 
 O                     50.128    42.549    23.285 
 H                     49.838    41.858    23.923 
 H                     50.917    42.89     23.772 
 O                     42.855    56.234    22.648 
 H                     42.395    55.369    22.692 
 H                     42.197    56.756    22.14 
 O                     38.316    50.809    22.443 
 H                     38.015    50.482    23.32 
 H                     37.722    50.295    21.857 
 O                     37.371    52.957    26.828 
 H                     36.938    52.797    25.971 
 H                     37.701    52.049    27.03 
 O                     48.886    56.438    22.633 
 H                     48.292    56.074    21.94 
 H                     49.037    55.641    23.181 
 O                     44.034    58.281    24.111 
 H                     43.777    57.456    23.641 
 H                     45.012    58.192    24.092 
 O                     41.986    58.705    25.971 
 H                     42.738    58.615    25.344 
 H                     41.287    59.017    25.354 
 O                     49.921    52.777    20.125 
 H                     49.419    52.183    20.743 
 H                     50.466    52.078    19.675 
 O                     39.791    52.82     21.496 
 H                     39.362    51.954    21.75 
 H                     39.124    53.417    21.934 
 O                     39.815    57.731    30.024 
 H                     40.373    58.318    29.459 
 H                     39.027    57.654    29.43 
 O                     46.925    58.097    23.744 
 H                     47.221    58.825    23.141 
 H                     47.527    57.387    23.425 
 O                     47.221    56.009    20.496 
 H                     46.378    55.576    20.799 
 H                     46.827    56.831    20.112 
 O                     38.874    55.022    33.87 
 H                     39.527    54.78     33.182 
 H                     38.086    55.185    33.297 
 
 Stoichiometry    C295H527N56O98S6(3-)
 Framework group  C1[X(C295H527N56O98S6)]
 Deg. of freedom  2940
 Full point group                 C1      NOp   1
 Largest Abelian subgroup         C1      NOp   1
 Largest concise Abelian subgroup C1      NOp   1
                         Standard orientation:                         
 ---------------------------------------------------------------------
 Center     Atomic      Atomic             Coordinates (Angstroms)
 Number     Number       Type             X           Y           Z
 ---------------------------------------------------------------------
      1          1           0       -4.840235    8.890985   -7.224292
      2          6           0       -4.520937    8.548431   -6.240386
      3          1           0       -4.317455    9.416887   -5.612836
      4          6           0       -5.667470    7.753156   -5.596231
      5          1           0       -6.470105    8.442445   -5.328869
      6          1           0       -6.074645    7.055032   -6.327012
      7          6           0       -5.262017    6.957472   -4.371835
      8          6           0       -5.328424    7.535002   -3.090392
      9          1           0       -5.676466    8.551830   -2.970387
     10          6           0       -4.934627    6.784128   -1.965290
     11          1           0       -4.973389    7.211018   -0.977576
     12          6           0       -4.476468    5.458777   -2.120920
     13          8           0       -4.103314    4.746492   -1.029548
     14          1           0       -3.889389    3.806392   -1.254279
     15          6           0       -4.407222    4.883855   -3.405387
     16          1           0       -4.047366    3.871338   -3.521167
     17          6           0       -4.798882    5.635821   -4.526218
     18          1           0       -4.735600    5.195532   -5.511065
     19          6           0       -3.220166    7.727784   -6.302843
     20          8           0       -2.284512    7.994492   -5.549075
     21          7           0       -3.123756    6.794445   -7.257715
     22          1           0       -3.931713    6.630251   -7.843575
     23          6           0       -1.930384    5.954967   -7.448468
     24          1           0       -1.708254    5.461611   -6.501925
     25          6           0       -2.220715    4.866140   -8.509566
     26          1           0       -2.541930    5.369519   -9.424083
     27          6           0       -0.968929    4.043896   -8.859460
     28          1           0       -1.239270    3.225534   -9.524445
     29          1           0       -0.512740    3.643483   -7.954998
     30          1           0       -0.239329    4.674185   -9.363308
     31          6           0       -3.364946    3.914842   -8.083735
     32          1           0       -4.267414    4.496039   -7.904072
     33          1           0       -3.581942    3.243179   -8.914100
     34          6           0       -3.086043    3.054960   -6.842346
     35          1           0       -3.946892    2.416022   -6.642443
     36          1           0       -2.907522    3.680730   -5.969280
     37          1           0       -2.219937    2.419172   -7.013261
     38          1           0       -1.044725    6.541700   -7.691914
     39          1           0       -0.040416   10.141773   -6.436466
     40          6           0        0.216153   10.651773   -5.507266
     41          1           0        0.907270   11.461962   -5.732094
     42          6           0       -1.040531   11.258012   -4.867374
     43          1           0       -0.729002   11.791229   -3.969741
     44          1           0       -1.705761   10.446861   -4.568149
     45          6           0       -1.825290   12.239385   -5.754691
     46          1           0       -2.145024   11.743673   -6.666714
     47          6           0       -3.077077   12.675973   -4.999848
     48          1           0       -3.650598   13.383730   -5.597376
     49          1           0       -2.802321   13.126621   -4.050512
     50          1           0       -3.692003   11.799779   -4.801404
     51          6           0       -1.004602   13.469750   -6.145775
     52          1           0       -1.634685   14.187001   -6.672475
     53          1           0       -0.580799   13.944858   -5.262286
     54          1           0       -0.193183   13.172774   -6.808731
     55          6           0        0.939450    9.707862   -4.535564
     56          8           0        1.930755   10.103457   -3.925976
     57          7           0        0.500088    8.447203   -4.442253
     58          1           0       -0.342230    8.204674   -4.955286
     59          6           0        1.193124    7.384258   -3.689540
     60          1           0        1.323583    7.705691   -2.658357
     61          6           0        0.338264    6.098903   -3.685477
     62          1           0        0.068113    5.850150   -4.711724
     63          6           0        1.064198    4.892089   -3.081465
     64          1           0        1.985106    4.682139   -3.621508
     65          1           0        1.301498    5.090701   -2.040000
     66          1           0        0.427213    4.010119   -3.146801
     67          6           0       -0.950286    6.301332   -2.876675
     68          1           0       -1.581655    5.420103   -2.969830
     69          1           0       -1.512419    7.156358   -3.249249
     70          1           0       -0.718031    6.466801   -1.824204
     71          6           0        2.595793    7.126167   -4.256004
     72          8           0        3.568747    7.060831   -3.501496
     73          7           0        2.715458    7.034055   -5.581530
     74          1           0        1.869563    7.086140   -6.142871
     75          6           0        3.969503    6.772695   -6.294300
     76          1           0        4.382725    5.828239   -5.939537
     77          6           0        3.646783    6.639283   -7.788310
     78          1           0        2.882633    5.876467   -7.917915
     79          1           0        3.252425    7.580117   -8.167506
     80          6           0        4.869157    6.244274   -8.603700
     81          8           0        5.443257    5.164798   -8.334688
     82          8           0        5.269377    7.014070   -9.504810
     83          1           0        4.726014    7.541441   -6.138975
     84          1           0        4.844177    9.950380   -3.072331
     85          6           0        4.848227   10.023852   -1.984697
     86          1           0        4.356530    9.136083   -1.585978
     87          1           0        5.879384   10.026949   -1.635069
     88          1           0        4.341514   10.893125   -1.566783
     89          1           0       -2.919160   12.904245   -0.909481
     90          6           0       -3.471598   12.001373   -0.650245
     91          1           0       -4.008774   11.650246   -1.532616
     92          6           0       -2.519497   10.873315   -0.176736
     93          1           0       -1.877026   11.279304    0.607069
     94          6           0       -3.298285    9.680757    0.414580
     95          1           0       -4.023793    9.315190   -0.311797
     96          1           0       -3.816960    9.968641    1.328634
     97          1           0       -2.620045    8.868378    0.673660
     98          6           0       -1.627673   10.371157   -1.331308
     99          1           0       -2.202333    9.723870   -1.996918
    100          1           0       -1.286934   11.221162   -1.912231
    101          6           0       -0.378137    9.625968   -0.843745
    102          1           0        0.281969    9.446366   -1.689087
    103          1           0        0.158253   10.228937   -0.112057
    104          1           0       -0.649492    8.669835   -0.399632
    105          1           0       -4.215103   12.226740    0.114596
    106          1           0       -9.269159   12.099950    0.687398
    107          6           0       -9.954717   11.728609    1.448554
    108          1           0      -10.608180   10.987565    0.993877
    109          6           0       -9.159175   11.030497    2.559109
    110          1           0       -8.304764   11.645399    2.847647
    111          1           0       -9.791544   10.925943    3.440805
    112          6           0       -8.691435    9.648604    2.156058
    113          6           0       -7.378785    9.429062    1.699698
    114          1           0       -6.675790   10.245886    1.656421
    115          6           0       -6.986574    8.141711    1.285426
    116          1           0       -5.986183    7.972438    0.921863
    117          6           0       -7.902350    7.069448    1.344585
    118          8           0       -7.529385    5.822462    0.967546
    119          1           0       -6.578474    5.689089    1.102368
    120          6           0       -9.211207    7.292633    1.810291
    121          1           0       -9.906838    6.471870    1.866345
    122          6           0       -9.603503    8.581183    2.203693
    123          1           0      -10.617471    8.751509    2.523672
    124          1           0      -10.599709   12.503413    1.862889
    125          1           0      -10.236333    3.914680    6.191680
    126          6           0       -9.564232    3.281578    5.612790
    127          1           0      -10.028380    3.074484    4.650000
    128          6           0       -8.211811    3.965480    5.313245
    129          1           0       -7.712110    4.196394    6.247936
    130          6           0       -7.292455    3.049222    4.494841
    131          1           0       -6.380238    3.581149    4.219818
    132          1           0       -7.001796    2.179549    5.084730
    133          1           0       -7.800541    2.715346    3.591159
    134          6           0       -8.382614    5.278094    4.541150
    135          1           0       -8.945450    5.994281    5.136834
    136          1           0       -7.407444    5.710310    4.313997
    137          1           0       -8.917947    5.092872    3.613063
    138          6           0       -9.368788    1.944955    6.322504
    139          8           0       -8.960762    1.906037    7.482158
    140          7           0       -9.667439    0.854519    5.618608
    141          1           0      -10.012000    0.989028    4.674352
    142          6           0       -9.474762   -0.532378    6.052225
    143          1           0       -9.239053   -0.570331    7.117087
    144          6           0      -10.767469   -1.334356    5.820589
    145          1           0      -11.061978   -1.229320    4.776879
    146          1           0      -10.566621   -2.386439    6.010845
    147          6           0      -11.932233   -0.879723    6.710377
    148          1           0      -12.032093    0.205458    6.646101
    149          1           0      -11.716645   -1.143977    7.749085
    150          6           0      -13.254229   -1.512168    6.267379
    151          8           0      -14.006760   -0.865764    5.501162
    152          8           0      -13.557756   -2.661949    6.652572
    153          6           0       -8.297660   -1.145438    5.280159
    154          8           0       -8.468770   -1.635448    4.160723
    155          7           0       -7.100433   -1.088310    5.868640
    156          1           0       -7.018652   -0.649088    6.771812
    157          6           0       -5.849856   -1.522616    5.236981
    158          1           0       -6.093861   -2.144518    4.381172
    159          6           0       -5.110698   -0.301996    4.664400
    160          1           0       -4.917261    0.409071    5.470245
    161          1           0       -5.749328    0.186958    3.926907
    162          6           0       -3.784992   -0.678785    3.992141
    163          8           0       -3.626868   -1.848966    3.578844
    164          8           0       -2.907096    0.203198    3.909306
    165          6           0       -4.938044   -2.316892    6.205792
    166          8           0       -4.549901   -1.778287    7.250096
    167          7           0       -4.575564   -3.575192    5.875294
    168          6           0       -3.462293   -4.287542    6.475550
    169          1           0       -2.543445   -3.971211    5.984511
    170          1           0       -3.384579   -4.102127    7.544981
    171          6           0       -3.710561   -5.768162    6.197509
    172          1           0       -2.774339   -6.314926    6.093768
    173          1           0       -4.317171   -6.198650    6.992368
    174          6           0       -4.505798   -5.762114    4.892058
    175          1           0       -5.187671   -6.609621    4.839427
    176          1           0       -3.822151   -5.795623    4.048600
    177          6           0       -5.258119   -4.426963    4.896398
    178          1           0       -5.190799   -3.987382    3.900744
    179          6           0       -6.732183   -4.641092    5.265850
    180          8           0       -7.100953   -4.647264    6.441453
    181          7           0       -7.589353   -4.896683    4.276562
    182          1           0       -7.264537   -4.817440    3.317797
    183          6           0       -8.982875   -5.254407    4.538965
    184          1           0       -9.438867   -4.423380    5.081308
    185          6           0       -9.759512   -5.436671    3.228841
    186          1           0       -9.293845   -6.224187    2.635870
    187          1           0       -9.708874   -4.510448    2.652275
    188          6           0      -11.214742   -5.783080    3.476141
    189          6           0      -12.111420   -4.775034    3.877113
    190          1           0      -11.772403   -3.754183    3.981538
    191          6           0      -13.438999   -5.101480    4.200607
    192          1           0      -14.111739   -4.332958    4.555038
    193          6           0      -13.879095   -6.431354    4.120462
    194          1           0      -14.893950   -6.683944    4.396436
    195          6           0      -12.987469   -7.439676    3.724431
    196          1           0      -13.336573   -8.457673    3.698313
    197          6           0      -11.653716   -7.120491    3.409070
    198          1           0      -10.958637   -7.897359    3.126614
    199          1           0       -9.036642   -6.136178    5.177371
    200          1           0       -1.017968    7.135687    9.005164
    201          6           0       -0.929643    6.140815    8.568352
    202          1           0       -0.395645    5.495509    9.266612
    203          6           0       -2.340425    5.569610    8.387787
    204          1           0       -2.905711    6.208603    7.709607
    205          1           0       -2.847037    5.589615    9.354047
    206          6           0       -2.380081    4.151736    7.861000
    207          6           0       -2.477773    3.068915    8.756401
    208          1           0       -2.517125    3.245807    9.821024
    209          6           0       -2.536500    1.751146    8.266927
    210          1           0       -2.633026    0.917131    8.948693
    211          6           0       -2.484112    1.516861    6.882659
    212          1           0       -2.544369    0.507089    6.495903
    213          6           0       -2.380505    2.596849    5.989707
    214          1           0       -2.357507    2.412542    4.922520
    215          6           0       -2.340154    3.913874    6.474517
    216          1           0       -2.288975    4.734792    5.771961
    217          6           0       -0.137121    6.144818    7.249656
    218          8           0        0.818518    5.374638    7.117034
    219          7           0       -0.462418    7.031495    6.299982
    220          1           0       -1.278203    7.624233    6.434725
    221          6           0        0.292030    7.137134    5.041764
    222          1           0        0.381530    6.136975    4.612741
    223          6           0       -0.441073    8.019153    4.023370
    224          1           0       -0.764335    8.942421    4.506608
    225          1           0        0.256772    8.290987    3.230952
    226          6           0       -1.617084    7.335479    3.355129
    227          6           0       -2.924898    7.818148    3.545524
    228          1           0       -3.097040    8.677539    4.175078
    229          6           0       -4.006112    7.181759    2.910476
    230          1           0       -5.011853    7.538385    3.040989
    231          6           0       -3.784305    6.068328    2.079435
    232          8           0       -4.832515    5.491738    1.441606
    233          1           0       -4.511220    5.029066    0.645279
    234          6           0       -2.474355    5.587792    1.878996
    235          1           0       -2.303732    4.727942    1.245636
    236          6           0       -1.393812    6.221298    2.518864
    237          1           0       -0.392490    5.838546    2.369617
    238          6           0        1.723739    7.642105    5.250348
    239          8           0        2.627874    7.177827    4.556651
    240          7           0        1.973252    8.524465    6.232034
    241          1           0        1.185981    8.920592    6.738589
    242          6           0        3.343999    8.921205    6.608864
    243          1           0        3.852781    9.337753    5.737269
    244          6           0        3.323155    9.971397    7.725492
    245          1           0        2.636231    9.636092    8.503867
    246          1           0        4.318163   10.040344    8.166738
    247          6           0        2.924621   11.369887    7.233621
    248          1           0        3.743402   11.817592    6.668651
    249          1           0        2.048170   11.294028    6.594803
    250          6           0        2.593652   12.228647    8.455590
    251          1           0        1.911124   11.645459    9.071348
    252          1           0        3.496138   12.396906    9.037133
    253          7           0        1.967959   13.523745    8.118350
    254          1           0        2.344498   14.049098    7.347365
    255          6           0        0.953741   14.052596    8.782232
    256          7           0        0.511014   13.512740    9.878047
    257          1           0        1.056113   12.784513   10.324105
    258          1           0       -0.296388   13.879580   10.360958
    259          7           0        0.335132   15.121608    8.373794
    260          1           0        0.720119   15.704812    7.646063
    261          1           0       -0.416254   15.485988    8.946850
    262          6           0        4.178654    7.723308    7.054107
    263          8           0        5.333188    7.629352    6.647533
    264          7           0        3.619564    6.803904    7.847736
    265          1           0        2.667929    6.951348    8.156900
    266          6           0        4.304224    5.557008    8.223686
    267          1           0        5.290216    5.797877    8.625452
    268          6           0        3.520081    4.801932    9.307501
    269          1           0        3.953836    3.807315    9.425994
    270          1           0        2.490423    4.675910    8.974997
    271          6           0        3.528164    5.487372   10.680473
    272          1           0        4.483639    5.311825   11.174090
    273          1           0        3.395481    6.562374   10.564043
    274          6           0        2.399855    4.941158   11.545872
    275          8           0        2.506478    3.889480   12.163894
    276          7           0        1.270517    5.605543   11.561133
    277          1           0        1.202574    6.463907   11.030355
    278          1           0        0.485136    5.254552   12.094011
    279          6           0        4.522289    4.637683    7.012827
    280          8           0        5.635602    4.154289    6.813162
    281          7           0        3.493781    4.424744    6.184518
    282          1           0        2.599001    4.846153    6.408245
    283          6           0        3.553870    3.513331    5.035222
    284          1           0        2.563044    3.443465    4.583220
    285          1           0        3.843800    2.519939    5.377559
    286          6           0        4.540111    3.971010    3.956825
    287          8           0        5.494128    3.260161    3.633754
    288          7           0        4.346413    5.187067    3.439119
    289          1           0        3.573148    5.733572    3.806060
    290          6           0        5.085616    5.759653    2.304600
    291          1           0        5.391176    4.946159    1.648061
    292          6           0        4.146783    6.690991    1.505304
    293          1           0        3.964948    7.587098    2.099873
    294          1           0        4.660961    6.996917    0.592348
    295          6           0        2.780557    6.093456    1.114371
    296          1           0        2.207150    5.869692    2.013459
    297          6           0        1.990846    7.106718    0.286935
    298          1           0        1.013216    6.691329    0.040842
    299          1           0        1.844618    8.018563    0.864345
    300          1           0        2.527286    7.340661   -0.632789
    301          6           0        2.928922    4.816337    0.292184
    302          1           0        3.471727    5.020522   -0.632007
    303          1           0        3.453411    4.058130    0.870958
    304          1           0        1.938884    4.425420    0.061492
    305          6           0        6.375275    6.503491    2.696875
    306          8           0        7.066941    7.026276    1.818047
    307          7           0        6.702188    6.594107    3.989940
    308          1           0        6.076314    6.170687    4.661037
    309          6           0        7.755977    7.472254    4.512692
    310          1           0        7.503740    8.508034    4.283949
    311          1           0        7.781733    7.369191    5.594832
    312          6           0        9.176000    7.198853    4.004215
    313          8           0        9.944720    8.144406    3.837982
    314          7           0        9.519105    5.949081    3.672800
    315          1           0        8.833402    5.210531    3.788548
    316          6           0       10.889652    5.538492    3.330953
    317          1           0       10.905501    4.455311    3.209626
    318          1           0       11.546458    5.790258    4.163907
    319          6           0       11.490022    6.154921    2.058931
    320          8           0       12.676865    5.962245    1.801941
    321          7           0       10.709870    6.891927    1.257594
    322          1           0        9.747864    7.032769    1.531490
    323          6           0       11.179744    7.546461    0.027534
    324          1           0       10.389705    8.200646   -0.342586
    325          1           0       12.056560    8.154651    0.254597
    326          6           0       11.545151    6.562053   -1.090538
    327          8           0       12.377237    6.876860   -1.941450
    328          7           0       10.963607    5.358841   -1.060672
    329          1           0       10.249777    5.245065   -0.352681
    330          6           0       11.283065    4.197598   -1.913352
    331          1           0       11.732231    4.540883   -2.844549
    332          6           0       12.281666    3.285243   -1.169891
    333          1           0       11.943672    3.160263   -0.139912
    334          1           0       12.280856    2.293368   -1.625624
    335          6           0       13.738898    3.776078   -1.147945
    336          1           0       14.284748    3.103968   -0.484815
    337          1           0       13.802162    4.776763   -0.720563
    338          6           0       14.439332    3.729365   -2.518107
    339          1           0       13.956914    2.989678   -3.158927
    340          1           0       15.463088    3.398028   -2.348004
    341          6           0       14.480147    5.090156   -3.228584
    342          1           0       14.887366    5.834769   -2.539691
    343          1           0       13.462899    5.395078   -3.487439
    344          7           0       15.315323    5.032541   -4.451234
    345          1           0       15.358378    5.932824   -4.915748
    346          1           0       14.936095    4.357597   -5.115295
    347          1           0       16.262636    4.754234   -4.215243
    348          6           0       10.054755    3.386829   -2.345421
    349          8           0       10.208771    2.456105   -3.128883
    350          7           0        8.857193    3.717570   -1.853808
    351          1           0        8.778625    4.556273   -1.292473
    352          6           0        7.606299    3.077837   -2.284624
    353          1           0        7.784247    2.009162   -2.378843
    354          6           0        6.470792    3.269369   -1.260199
    355          1           0        6.232533    4.328458   -1.175966
[...]
 H,0,38.668,42.298,23.286\C,0,40.763,42.802,23.272\H,0,41.202,43.43,24.
 05\C,0,41.04,41.339,23.64\H,0,40.415,40.685,23.03\H,0,42.08,41.111,23.
 405\C,0,40.846,41.03,25.111\C,0,39.846,40.131,25.525\H,0,39.207,39.66,
 24.794\C,0,39.684,39.844,26.892\H,0,38.928,39.157,27.227\C,0,40.523,40
 .447,27.847\O,0,40.381,40.128,29.157\H,0,41.223,40.29,29.622\C,0,41.53
 2,41.341,27.435\H,0,42.173,41.81,28.169\C,0,41.69,41.632,26.068\H,0,42
 .459,42.329,25.761\C,0,41.483,43.169,21.97\O,0,42.615,43.648,22.028\N,
 0,40.838,43.029,20.8\H,0,39.928,42.576,20.8\C,0,41.395,43.524,19.526\H
 ,0,42.369,43.062,19.353\C,0,40.466,43.187,18.354\H,0,39.447,43.463,18.
 629\H,0,40.752,43.788,17.49\C,0,40.522,41.709,17.943\H,0,41.454,41.5,1
 7.416\H,0,40.464,41.083,18.83\C,0,39.325,41.421,17.035\H,0,38.447,41.8
 2,17.54\H,0,39.439,41.963,16.1\N,0,39.123,39.984,16.758\H,0,39.93,39.4
 2,16.551\C,0,37.941,39.391,16.741\N,0,36.842,40.076,16.847\H,0,36.88,4
 1.085,16.764\H,0,35.939,39.626,16.889\N,0,37.81,38.101,16.636\H,0,38.5
 86,37.515,16.367\H,0,36.873,37.718,16.603\C,0,41.641,45.03,19.562\O,0,
 42.691,45.464,19.097\N,0,40.721,45.823,20.121\H,0,39.872,45.4,20.472\C
 ,0,40.928,47.267,20.313\H,0,41.23,47.714,19.364\C,0,39.633,47.954,20.7
 72\H,0,39.867,48.975,21.079\H,0,39.244,47.428,21.643\C,0,38.543,48.023
 ,19.694\H,0,38.776,48.817,18.985\H,0,38.494,47.081,19.149\C,0,37.188,4
 8.294,20.335\O,0,36.832,49.423,20.648\N,0,36.427,47.262,20.605\H,0,36.
 75,46.338,20.35\H,0,35.536,47.398,21.065\C,0,42.048,47.554,21.324\O,0,
 42.932,48.359,21.035\N,0,42.047,46.881,22.48\H,0,41.286,46.236,22.662\
 C,0,43.019,47.115,23.555\H,0,42.744,46.512,24.422\H,0,42.989,48.165,23
 .846\C,0,44.453,46.754,23.157\O,0,45.343,47.607,23.168\N,0,44.668,45.5
 01,22.747\H,0,43.867,44.878,22.708\C,0,45.983,44.912,22.455\H,0,46.725
 ,45.398,23.087\C,0,45.958,43.41,22.817\H,0,45.338,42.891,22.085\H,0,46
 .973,43.018,22.73\C,0,45.425,43.066,24.222\H,0,44.379,43.361,24.3\C,0,
 45.512,41.558,24.453\H,0,45.104,41.317,25.435\H,0,44.927,41.036,23.697
 \H,0,46.55,41.229,24.401\C,0,46.219,43.765,25.322\H,0,47.266,43.46,25.
 287\H,0,46.143,44.845,25.209\H,0,45.79,43.506,26.289\C,0,46.459,45.108
 ,21.004\O,0,47.549,44.646,20.654\N,0,45.663,45.75,20.143\H,0,44.77,46.
 076,20.486\C,0,45.882,45.789,18.692\H,0,45.846,44.773,18.298\H,0,45.06
 8,46.349,18.238\C,0,47.188,46.441,18.224\O,0,47.755,45.997,17.227\N,0,
 47.725,47.422,18.958\H,0,47.239,47.723,19.796\C,0,48.878,48.229,18.53\
 H,0,49.037,49.02,19.263\H,0,48.638,48.701,17.577\C,0,50.209,47.482,18.
 36\O,0,51.169,48.072,17.868\N,0,50.296,46.203,18.748\H,0,49.468,45.765
 ,19.126\C,0,51.51,45.384,18.615\H,0,51.262,44.351,18.861\H,0,51.859,45
 .421,17.582\C,0,52.655,45.83,19.533\O,0,53.823,45.606,19.215\N,0,52.32
 5,46.501,20.641\H,0,51.332,46.563,20.825\C,0,53.245,47.177,21.576\H,0,
 54.231,46.718,21.514\C,0,53.35,48.668,21.191\H,0,52.347,49.053,21.\H,0
 ,53.752,49.236,22.032\C,0,54.231,48.977,19.969\H,0,54.099,50.037,19.74
 9\H,0,53.89,48.419,19.097\C,0,55.735,48.746,20.203\H,0,55.962,48.815,2
 1.268\H,0,56.269,49.552,19.701\C,0,56.24,47.407,19.646\H,0,55.928,47.3
 2,18.602\H,0,55.78,46.586,20.202\N,0,57.716,47.311,19.735\H,0,58.056,4
 6.435,19.354\H,0,58.023,47.368,20.706\H,0,58.148,48.069,19.216\C,0,52.
 842,47.044,23.05\O,0,53.592,47.495,23.909\N,0,51.687,46.444,23.352\H,0
 ,51.161,46.003,22.608\C,0,51.26,46.169,24.731\H,0,51.5,47.036,25.342\C
 ,0,49.74,45.936,24.835\H,0,49.47,45.044,24.272\C,0,49.318,45.725,26.29
 4\H,0,49.786,44.831,26.705\H,0,49.591,46.593,26.896\H,0,48.241,45.584,
 26.338\C,0,48.936,47.115,24.268\H,0,49.186,48.032,24.799\H,0,49.144,47
 .242,23.206\H,0,47.87,46.925,24.385\C,0,52.032,44.963,25.267\O,0,52.01
 8,43.898,24.646\N,0,52.688,45.112,26.42\H,0,52.702,46.046,26.826\C,0,5
 3.485,44.06,27.077\H,0,53.324,43.103,26.578\C,0,54.982,44.417,26.982\H
 ,0,55.566,43.649,27.49\H,0,55.15,45.36,27.504\C,0,55.503,44.567,25.538
 \H,0,56.522,44.956,25.57\H,0,54.899,45.3,25.005\C,0,55.499,43.252,24.7
 46\H,0,54.538,42.75,24.865\H,0,55.621,43.486,23.688\N,0,56.604,42.377,
 25.174\H,0,57.416,42.814,25.583\C,0,56.641,41.061,25.159\N,0,55.689,40
 .306,24.706\H,0,54.804,40.734,24.469\H,0,55.639,39.4,25.156\N,0,57.683
 ,40.465,25.64\H,0,58.433,41.023,26.02\H,0,57.749,39.455,25.596\C,0,53.
 027,43.883,28.522\O,0,52.898,44.871,29.241\N,0,52.796,42.65,28.968\H,0
 ,53.105,41.876,28.387\C,0,52.152,42.334,30.246\H,0,52.042,43.253,30.81
 7\C,0,50.739,41.811,29.969\H,0,50.205,41.672,30.91\H,0,50.786,40.857,2
 9.442\H,0,50.195,42.532,29.36\C,0,52.971,41.356,31.107\O,0,53.471,40.3
 41,30.622\N,0,53.08,41.633,32.408\H,0,52.662,42.487,32.767\C,0,53.824,
 40.797,33.354\H,0,53.816,39.769,32.995\C,0,55.294,41.253,33.406\H,0,55
 .754,41.096,32.429\H,0,55.832,40.644,34.136\S,0,55.457,43.006,33.868\H
 ,0,56.766,42.961,34.171\H,0,53.364,40.786,34.342\H,0,45.385,38.478,40.
 466\C,0,46.435,38.561,40.187\H,0,47.024,38.055,40.946\C,0,46.705,37.79
 9,38.884\H,0,46.376,36.769,39.019\H,0,47.78,37.788,38.71\C,0,46.02,38.
 364,37.635\H,0,46.423,39.347,37.394\H,0,44.953,38.463,37.834\S,0,46.25
 ,37.274,36.209\C,0,44.772,37.648,35.233\H,0,43.886,37.601,35.864\H,0,4
 4.861,38.641,34.791\H,0,44.672,36.907,34.441\H,0,46.78,39.593,40.13\H,
 0,49.621,42.621,38.075\C,0,50.213,42.685,37.162\H,0,51.215,42.308,37.3
 65\C,0,49.593,41.772,36.084\H,0,50.313,41.628,35.284\H,0,49.42,40.787,
 36.515\C,0,48.301,42.242,35.45\C,0,48.285,42.673,34.108\H,0,49.202,42.
 72,33.537\C,0,47.066,43.002,33.489\H,0,47.032,43.304,32.451\C,0,45.872
 ,42.938,34.22\H,0,44.937,43.216,33.756\C,0,45.894,42.535,35.564\H,0,44
 .977,42.519,36.121\C,0,47.1,42.17,36.176\H,0,47.099,41.837,37.202\C,0,
 50.404,44.13,36.699\O,0,49.799,45.068,37.233\N,0,51.275,44.291,35.706\
 H,0,51.765,43.461,35.376\C,0,51.54,45.542,34.998\H,0,50.791,46.282,35.
 28\C,0,52.922,46.07,35.412\H,0,52.877,46.355,36.464\H,0,53.658,45.271,
 35.304\C,0,53.388,47.272,34.574\H,0,53.564,46.945,33.55\H,0,52.619,48.
 047,34.567\C,0,54.694,47.854,35.116\H,0,55.121,48.504,34.35\H,0,55.402
 ,47.047,35.314\N,0,54.455,48.633,36.34\H,0,53.565,48.512,36.823\C,0,55
 .24,49.549,36.863\N,0,56.443,49.784,36.425\H,0,56.831,49.205,35.69\H,0
 ,57.016,50.495,36.87\N,0,54.806,50.241,37.868\H,0,53.856,50.074,38.193
 \H,0,55.352,50.982,38.263\C,0,51.422,45.318,33.496\O,0,51.931,44.324,3
 2.973\N,0,50.802,46.275,32.814\H,0,50.415,47.054,33.34\C,0,50.84,46.41
 7,31.354\H,0,51.355,45.556,30.939\C,0,49.432,46.423,30.726\H,0,49.542,
 46.494,29.643\C,0,48.708,45.113,31.041\H,0,48.515,45.046,32.111\H,0,49
 .314,44.266,30.727\H,0,47.754,45.081,30.516\C,0,48.552,47.583,31.195\H
 ,0,48.427,47.558,32.277\H,0,47.57,47.511,30.729\H,0,49.006,48.526,30.9
 \C,0,51.663,47.65,30.978\O,0,51.706,48.628,31.721\N,0,52.354,47.596,29
 .846\H,0,52.337,46.731,29.317\C,0,53.236,48.657,29.347\H,0,53.03,49.58
 3,29.882\C,0,54.71,48.293,29.58\H,0,55.324,49.122,29.225\H,0,54.962,47
 .403,29.001\C,0,55.033,48.039,31.06\H,0,54.59,47.091,31.373\H,0,54.6,4
 8.839,31.662\C,0,56.541,47.986,31.301\O,0,57.26,47.259,30.579\O,0,57.0
 41,48.683,32.215\C,0,52.966,48.91,27.863\O,0,52.826,47.956,27.096\N,0,
 52.855,50.184,27.472\H,0,53.088,50.911,28.143\C,0,52.401,50.618,26.143
 \H,0,52.944,50.043,25.391\C,0,50.895,50.288,25.98\H,0,50.758,49.21,26.
 051\H,0,50.59,50.561,24.97\C,0,49.929,50.957,26.971\H,0,50.274,51.96,2
 7.212\H,0,48.966,51.057,26.471\S,0,49.632,50.019,28.497\C,0,50.311,51.
 132,29.752\H,0,51.351,51.355,29.525\H,0,49.734,52.057,29.775\H,0,50.25
 3,50.651,30.727\C,0,52.738,52.109,25.901\O,0,53.746,52.61,26.404\N,0,5
 1.929,52.823,25.104\H,0,51.105,52.371,24.737\C,0,52.113,54.245,24.763\
 H,0,52.889,54.659,25.406\C,0,52.586,54.407,23.3\H,0,51.81,54.021,22.63
 8\C,0,52.848,55.872,22.927\H,0,53.665,56.262,23.528\H,0,53.131,55.94,2
 1.877\H,0,51.955,56.476,23.077\C,0,53.885,53.635,23.02\H,0,54.664,53.9
 58,23.71\H,0,53.718,52.565,23.141\H,0,54.207,53.814,21.993\C,0,50.823,
 55.037,25.024\O,0,49.751,54.662,24.544\N,0,50.936,56.159,25.737\H,0,51
 .87,56.41,26.053\C,0,49.863,57.09,26.119\H,0,48.942,56.846,25.588\C,0,
 49.61,56.974,27.63\H,0,49.044,56.062,27.825\H,0,50.574,56.887,28.132\C
 ,0,48.898,58.132,28.26\C,0,49.49,59.094,29.004\H,0,50.548,59.123,29.24
 \N,0,48.553,60.036,29.381\H,0,48.772,60.846,29.944\C,0,47.307,59.742,2
 8.868\C,0,46.07,60.399,28.925\H,0,45.971,61.334,29.458\C,0,44.969,59.8
 34,28.259\H,0,44.011,60.334,28.267\C,0,45.119,58.621,27.562\H,0,44.272
 ,58.188,27.05\C,0,46.367,57.974,27.506\H,0,46.471,57.054,26.949\C,0,47
 .494,58.518,28.156\H,0,50.144,58.113,25.868\H,0,54.375,54.486,28.881\C
 ,0,53.834,54.416,29.825\H,0,54.389,54.974,30.579\C,0,52.461,55.088,29.
 658\H,0,51.964,55.136,30.628\H,0,52.601,56.105,29.287\S,0,51.418,54.15
 2,28.506\H,0,50.288,54.833,28.725\C,0,53.703,52.978,30.358\O,0,53.891,
 51.99,29.643\N,0,53.339,52.887,31.635\H,0,53.173,53.755,32.137\C,0,53.
 015,51.669,32.365\H,0,52.853,50.857,31.659\C,0,54.194,51.296,33.27\H,0
 ,54.388,52.102,33.979\H,0,55.085,51.116,32.667\H,0,53.947,50.394,33.82
 6\C,0,51.718,51.865,33.166\O,0,51.376,52.986,33.545\N,0,50.992,50.779,
 33.414\H,0,51.306,49.895,33.027\C,0,49.755,50.767,34.187\H,0,49.737,51
 .638,34.84\C,0,48.566,50.866,33.214\H,0,48.674,50.074,32.479\H,0,48.61
 5,51.819,32.686\C,0,47.18,50.72,33.865\H,0,47.159,49.828,34.485\C,0,46
 .834,51.925,34.736\H,0,47.556,52.006,35.543\H,0,46.843,52.838,34.142\H
 ,0,45.848,51.784,35.174\C,0,46.119,50.57,32.779\H,0,46.347,49.703,32.1
 58\H,0,46.078,51.465,32.161\H,0,45.147,50.4,33.239\C,0,49.718,49.514,3
 5.066\O,0,49.799,48.389,34.571\N,0,49.597,49.711,36.375\H,0,49.544,50.
 665,36.709\C,0,49.451,48.628,37.347\H,0,50.,47.755,36.99\C,0,50.081,49
 .049,38.681\H,0,49.527,49.893,39.089\H,0,50.002,48.225,39.384\C,0,51.5
 59,49.415,38.548\O,0,52.376,48.515,38.242\O,0,51.932,50.588,38.79\C,0,
 47.973,48.234,37.513\O,0,47.147,49.049,37.917\N,0,47.637,46.962,37.278
 \H,0,48.369,46.327,36.969\C,0,46.253,46.438,37.253\H,0,45.57,47.208,37
 .613\C,0,45.827,46.098,35.801\H,0,46.436,45.264,35.46\C,0,44.344,45.70
 9,35.69\H,0,44.074,45.573,34.641\H,0,44.148,44.766,36.193\H,0,43.717,4
 6.489,36.117\C,0,46.063,47.258,34.825\H,0,45.698,46.991,33.831\H,0,47.
 128,47.466,34.738\H,0,45.54,48.15,35.165\C,0,46.114,45.222,38.183\O,0,
 47.102,44.537,38.464\N,0,44.908,44.962,38.701\H,0,44.151,45.607,38.487
 \C,0,44.549,43.701,39.371\H,0,45.358,42.993,39.217\C,0,44.366,43.87,40
 .902\H,0,43.757,44.757,41.08\C,0,43.655,42.654,41.536\H,0,43.596,42.76
 1,42.617\H,0,42.631,42.576,41.17\H,0,44.193,41.736,41.298\C,0,45.736,4
 4.056,41.586\H,0,46.326,44.763,41.011\H,0,46.265,43.104,41.595\C,0,45.
 666,44.59,43.019\H,0,45.093,45.516,43.043\H,0,46.679,44.79,43.359\H,0,
 45.214,43.859,43.688\C,0,43.308,43.115,38.7\O,0,42.228,43.695,38.78\N,
 0,43.45,41.947,38.075\H,0,44.355,41.497,38.107\C,0,42.317,41.201,37.52
 2\H,0,41.51,41.891,37.276\C,0,42.698,40.456,36.238\H,0,43.649,39.949,3
 6.386\H,0,41.941,39.702,36.023\C,0,42.804,41.346,35.01\O,0,42.619,42.5
 55,35.005\O,0,43.149,40.655,33.906\H,0,43.253,41.284,33.145\C,0,41.8,4
 0.203,38.552\O,0,42.587,39.456,39.139\N,0,40.479,40.151,38.715\H,0,39.
 923,40.858,38.239\C,0,39.76,39.18,39.55\H,0,40.473,38.52,40.041\C,0,38
 .954,39.903,40.645\H,0,38.204,40.535,40.174\C,0,38.235,38.908,41.556\H
 ,0,37.683,39.455,42.32\H,0,38.961,38.249,42.033\H,0,37.525,38.311,40.9
 86\C,0,39.841,40.798,41.521\H,0,40.319,41.567,40.915\H,0,40.606,40.202
 ,42.016\H,0,39.228,41.298,42.268\C,0,38.854,38.334,38.655\O,0,38.025,3
 8.884,37.93\N,0,39.001,37.009,38.682\H,0,39.638,36.614,39.369\C,0,38.3
 31,36.071,37.764\H,0,37.627,36.609,37.132\C,0,39.372,35.395,36.851\H,0
 ,38.897,34.572,36.315\H,0,40.17,34.978,37.468\C,0,39.98,36.344,35.815\
 H,0,40.365,37.231,36.319\H,0,39.191,36.646,35.126\S,0,41.332,35.602,34
 .859\C,0,41.641,36.911,33.641\H,0,41.86,37.853,34.145\H,0,42.493,36.63
 3,33.022\H,0,40.769,37.033,32.999\H,0,37.775,35.302,38.3\H,0,36.982,31
 .484,32.159\C,0,36.768,32.394,32.719\H,0,36.875,32.185,33.784\C,0,37.7
 52,33.532,32.352\H,0,37.587,33.794,31.309\C,0,37.45,34.768,33.215\H,0,
 36.452,35.15,33.002\H,0,38.164,35.563,33.003\H,0,37.513,34.513,34.274\
 C,0,39.242,33.147,32.504\H,0,39.399,32.115,32.196\H,0,39.541,33.238,33
 .549\C,0,40.164,34.01,31.63\H,0,39.895,33.894,30.579\H,0,40.081,35.06,
 31.902\H,0,41.198,33.691,31.769\H,0,35.735,32.679,32.517\H,0,35.576,38
 .527,34.714\C,0,36.5,39.053,34.953\H,0,36.935,38.556,35.815\C,0,37.518
 ,38.931,33.805\H,0,37.551,37.886,33.502\H,0,37.198,39.529,32.954\C,0,3
 8.947,39.326,34.209\H,0,39.134,38.961,35.218\H,0,39.634,38.809,33.542\
 S,0,39.386,41.083,34.159\C,0,39.951,41.256,32.443\H,0,39.148,40.989,31
 .758\H,0,40.806,40.602,32.271\H,0,40.254,42.288,32.259\C,0,36.239,40.5
 12,35.352\O,0,35.324,41.154,34.83\N,0,37.026,41.031,36.295\H,0,37.721,
 40.421,36.709\C,0,36.95,42.397,36.82\H,0,36.355,43.017,36.15\C,0,36.27
 ,42.371,38.203\H,0,36.867,41.767,38.884\H,0,36.221,43.388,38.594\C,0,3
 4.853,41.787,38.14\H,0,34.268,42.397,37.458\H,0,34.879,40.77,37.753\C,
 0,34.149,41.72,39.485\O,0,34.688,41.294,40.502\N,0,32.889,42.071,39.52
 7\H,0,32.421,42.353,38.663\H,0,32.375,41.963,40.381\C,0,38.359,42.999,
 36.906\O,0,39.171,42.536,37.711\N,0,38.653,44.005,36.077\H,0,37.931,44
 .342,35.446\C,0,39.963,44.652,35.992\H,0,40.732,43.971,36.361\C,0,40.2
 76,44.933,34.52\H,0,41.264,45.386,34.429\H,0,39.536,45.614,34.105\H,0,
 40.269,44.005,33.95\C,0,39.998,45.925,36.853\O,0,39.557,47.,36.442\N,0
 ,40.506,45.818,38.078\H,0,40.902,44.926,38.356\C,0,40.667,46.954,38.98
 4\H,0,39.77,47.572,38.938\C,0,40.814,46.455,40.431\H,0,41.113,47.294,4
 1.06\H,0,41.609,45.71,40.482\C,0,39.534,45.863,40.993\C,0,39.171,44.53
 3,40.7\H,0,39.827,43.911,40.103\C,0,37.929,44.028,41.13\H,0,37.627,43.
 025,40.87\C,0,37.048,44.854,41.857\O,0,35.805,44.41,42.18\H,0,35.144,4
 5.077,41.953\C,0,37.433,46.168,42.196\H,0,36.76,46.788,42.764\C,0,38.6
 71,46.674,41.757\H,0,38.946,47.695,41.976\C,0,41.86,47.813,38.543\O,0,
 43.009,47.382,38.659\N,0,41.569,49.027,38.061\H,0,40.588,49.237,37.928
 \C,0,42.518,50.112,37.763\H,0,43.176,50.247,38.624\C,0,43.395,49.75,36
 .549\H,0,44.203,50.48,36.491\H,0,43.875,48.79,36.725\C,0,42.722,49.712
 ,35.206\C,0,42.07,48.65,34.682\H,0,41.948,47.688,35.161\N,0,41.58,48.9
 68,33.432\H,0,41.038,48.31,32.853\C,0,41.877,50.265,33.085\C,0,41.597,
 51.04,31.95\H,0,41.059,50.6,31.122\C,0,42.033,52.375,31.906\H,0,41.825
 ,52.982,31.037\C,0,42.755,52.909,32.988\H,0,43.11,53.929,32.943\C,0,43
 .043,52.115,34.117\H,0,43.634,52.52,34.921\C,0,42.598,50.776,34.205\C,
 0,41.799,51.451,37.492\O,0,40.609,51.497,37.15\N,0,42.542,52.553,37.59
 6\H,0,43.493,52.461,37.934\C,0,42.195,53.859,37.015\H,0,41.71,53.702,3
 6.051\C,0,41.211,54.624,37.91\H,0,40.352,53.993,38.134\H,0,40.855,55.5
 04,37.379\O,0,41.814,55.033,39.115\H,0,41.637,54.316,39.757\C,0,43.469
 ,54.676,36.758\O,0,44.582,54.191,36.963\N,0,43.333,55.921,36.304\H,0,4
 2.394,56.286,36.159\C,0,44.451,56.821,35.991\H,0,45.079,56.318,35.255\
 C,0,43.896,58.093,35.328\H,0,44.749,58.656,34.944\H,0,43.287,57.815,34
 .467\C,0,43.09,59.04,36.238\H,0,42.967,59.973,35.692\H,0,43.669,59.265
 ,37.136\C,0,41.682,58.572,36.634\O,0,41.122,57.608,36.061\O,0,41.075,5
 9.204,37.523\H,0,45.105,57.052,36.832\H,0,47.132,54.522,38.635\C,0,47.
 86,53.724,38.486\H,0,48.551,53.752,39.323\C,0,47.12,52.37,38.531\H,0,4
 6.381,52.322,37.733\H,0,47.84,51.569,38.373\C,0,46.423,52.107,39.856\O
 ,0,45.201,52.051,39.949\N,0,47.185,51.967,40.919\H,0,48.196,52.023,40.
 816\H,0,46.754,51.898,41.834\C,0,48.741,53.883,37.223\O,0,49.581,53.02
 2,36.947\N,0,48.542,54.953,36.44\H,0,47.88,55.647,36.758\C,0,49.23,55.
 22,35.169\H,0,49.461,54.269,34.687\C,0,48.24,55.987,34.264\H,0,47.9,56
 .867,34.811\H,0,47.372,55.352,34.086\C,0,48.788,56.471,32.906\H,0,49.6
 38,57.133,33.064\C,0,49.22,55.323,31.995\H,0,48.408,54.605,31.879\H,0,
 49.505,55.713,31.019\H,0,50.085,54.823,32.427\C,0,47.701,57.263,32.176
 \H,0,46.84,56.625,31.979\H,0,47.392,58.109,32.789\H,0,48.092,57.64,31.
 231\H,0,50.165,55.761,35.314\C,0,43.927,42.973,31.198\O,0,43.552,41.94
 ,31.766\C,0,43.492,44.204,31.651\C,0,43.923,45.378,31.022\C,0,44.818,4
 5.332,29.927\C,0,45.252,44.069,29.468\C,0,44.793,42.905,30.106\C,0,43.
 444,46.606,31.491\C,0,43.852,47.803,30.891\C,0,44.741,47.775,29.804\C,
 0,45.242,46.54,29.315\C,0,45.245,49.064,29.173\C,0,45.47,48.921,27.653
 \C,0,46.595,47.875,27.474\C,0,46.193,46.505,28.097\C,0,44.472,50.388,2
 9.34\C,0,45.184,51.326,28.331\C,0,45.793,50.382,27.291\O,0,46.342,50.7
 76,26.27\C,0,44.215,48.487,26.83\H,0,45.94,43.972,28.635\H,0,45.113,41
 .931,29.765\H,0,42.741,46.625,32.319\H,0,43.477,48.745,31.282\H,0,46.2
 26,49.257,29.633\H,0,47.506,48.23,27.967\H,0,46.839,47.754,26.412\H,0,
 45.709,45.917,27.309\H,0,47.109,45.965,28.361\H,0,44.519,50.773,30.366
 \H,0,42.804,44.243,32.486\H,0,43.416,50.251,29.072\H,0,45.997,51.88,28
 .816\H,0,44.485,52.024,27.858\H,0,43.381,49.188,26.959\H,0,44.462,48.4
 46,25.764\H,0,43.851,47.497,27.122\O,0,41.946,46.503,28.614\H,0,42.547
 ,46.778,29.338\H,0,41.123,46.351,29.175\O,0,44.439,51.076,24.402\H,0,4
 4.559,50.253,23.905\H,0,45.206,51.033,25.018\O,0,43.129,44.745,26.957\
 H,0,42.587,45.436,27.421\H,0,43.577,44.354,27.727\O,0,42.611,54.716,27
 .047\H,0,43.569,54.746,27.188\H,0,42.558,54.075,26.298\O,0,42.526,52.8
 53,25.046\H,0,43.213,52.144,24.902\H,0,42.457,53.158,24.103\O,0,40.771
 ,51.72,27.021\H,0,41.438,52.043,26.391\H,0,40.665,52.497,27.604\O,0,40
 .289,53.983,28.559\H,0,41.182,54.363,28.46\H,0,40.083,54.252,29.484\O,
 0,46.865,48.965,21.389\H,0,46.377,48.488,22.098\H,0,46.108,49.421,20.9
 49\O,0,48.589,51.064,21.765\H,0,48.073,50.256,21.533\H,0,48.232,51.257
 ,22.644\O,0,38.437,50.458,27.216\H,0,38.552,49.836,27.957\H,0,39.367,5
 0.802,27.143\O,0,38.964,47.543,24.629\H,0,38.881,47.127,25.508\H,0,39.
 291,46.79,24.1\O,0,39.816,54.07,25.016\H,0,40.525,53.455,24.771\H,0,39
 .288,54.094,24.189\O,0,44.731,50.047,20.114\H,0,44.655,49.858,19.146\H
 ,0,44.02,49.443,20.444\O,0,40.577,56.529,26.929\H,0,41.026,57.345,26.6
 13\H,0,41.351,55.915,26.933\O,0,42.199,53.537,22.443\H,0,42.771,53.101
 ,21.763\H,0,41.316,53.239,22.104\O,0,37.432,49.759,24.821\H,0,37.95,48
 .92,24.68\H,0,37.809,50.005,25.705\O,0,39.609,55.179,30.943\H,0,39.825
 ,56.107,30.69\H,0,38.658,55.29,31.171\O,0,50.074,44.731,21.607\H,0,49.
 135,44.67,21.336\H,0,50.134,43.922,22.174\O,0,43.861,52.609,20.47\H,0,
 43.92,52.763,19.496\H,0,44.22,51.686,20.494\O,0,44.903,55.007,21.28\H,
 0,44.266,55.375,21.929\H,0,44.605,54.073,21.245\O,0,50.128,42.549,23.2
 85\H,0,49.838,41.858,23.923\H,0,50.917,42.89,23.772\O,0,42.855,56.234,
 22.648\H,0,42.395,55.369,22.692\H,0,42.197,56.756,22.14\O,0,38.316,50.
 809,22.443\H,0,38.015,50.482,23.32\H,0,37.722,50.295,21.857\O,0,37.371
 ,52.957,26.828\H,0,36.938,52.797,25.971\H,0,37.701,52.049,27.03\O,0,48
 .886,56.438,22.633\H,0,48.292,56.074,21.94\H,0,49.037,55.641,23.181\O,
 0,44.034,58.281,24.111\H,0,43.777,57.456,23.641\H,0,45.012,58.192,24.0
 92\O,0,41.986,58.705,25.971\H,0,42.738,58.615,25.344\H,0,41.287,59.017
 ,25.354\O,0,49.921,52.777,20.125\H,0,49.419,52.183,20.743\H,0,50.466,5
 2.078,19.675\O,0,39.791,52.82,21.496\H,0,39.362,51.954,21.75\H,0,39.12
 4,53.417,21.934\O,0,39.815,57.731,30.024\H,0,40.373,58.318,29.459\H,0,
 39.027,57.654,29.43\O,0,46.925,58.097,23.744\H,0,47.221,58.825,23.141\
 H,0,47.527,57.387,23.425\O,0,47.221,56.009,20.496\H,0,46.378,55.576,20
 .799\H,0,46.827,56.831,20.112\O,0,38.874,55.022,33.87\H,0,39.527,54.78
 ,33.182\H,0,38.086,55.185,33.297\\Version=ES64L-G16RevC.01\State=1-A\H
 F=-24380.8639213\RMSD=6.911e-10\Dipole=21.1214164,-32.8307,-62.7313736
 \Quadrupole=-214.1450726,-311.0367632,525.1818357,254.5129094,547.1695
 531,166.0536229\PG=C01 [X(C295H527N56O98S6)]\\@
 The archive entry for this job was punched.


 LIFE IS A CONTINUAL STRUGGLE AGAINST THE TENDENCY TO PRODUCE ENTROPY.
 Job cpu time:       8 days  4 hours 47 minutes 38.6 seconds.
 Elapsed time:       0 days  3 hours  9 minutes 15.0 seconds.
 File lengths (MBytes):  RWF=  33430 Int=      0 D2E=      0 Chk=   3579 Scr=      1
 Normal termination of Gaussian 16 at Tue Jan 27 16:44:16 2026.
