 Entering Gaussian System, Link 0=g16
 Input=CSA_apo_truncated.com
 Output=CSA_apo_truncated.log
 Initial command:
 /usr/local/packages/license/gaussian/g16-c01/g16/l1.exe "/var/scratch/Gau-1116756.inp" -scrdir="/var/scratch/"
 Entering Link 1 = /usr/local/packages/license/gaussian/g16-c01/g16/l1.exe PID=   1116763.
  
 Copyright (c) 1988-2019, Gaussian, Inc.  All Rights Reserved.
  
 This is part of the Gaussian(R) 16 program.  It is based on
 the Gaussian(R) 09 system (copyright 2009, Gaussian, Inc.),
 the Gaussian(R) 03 system (copyright 2003, Gaussian, Inc.),
 the Gaussian(R) 98 system (copyright 1998, Gaussian, Inc.),
 the Gaussian(R) 94 system (copyright 1995, Gaussian, Inc.),
 the Gaussian 92(TM) system (copyright 1992, Gaussian, Inc.),
 the Gaussian 90(TM) system (copyright 1990, Gaussian, Inc.),
 the Gaussian 88(TM) system (copyright 1988, Gaussian, Inc.),
 the Gaussian 86(TM) system (copyright 1986, Carnegie Mellon
 University), and the Gaussian 82(TM) system (copyright 1983,
 Carnegie Mellon University). Gaussian is a federally registered
 trademark of Gaussian, Inc.
  
 This software contains proprietary and confidential information,
 including trade secrets, belonging to Gaussian, Inc.
  
 This software is provided under written license and may be
 used, copied, transmitted, or stored only in accord with that
 written license.
  
 The following legend is applicable only to US Government
 contracts under FAR:
  
                    RESTRICTED RIGHTS LEGEND
  
 Use, reproduction and disclosure by the US Government is
 subject to restrictions as set forth in subparagraphs (a)
 and (c) of the Commercial Computer Software - Restricted
 Rights clause in FAR 52.227-19.
  
 Gaussian, Inc.
 340 Quinnipiac St., Bldg. 40, Wallingford CT 06492
  
  
 ---------------------------------------------------------------
 Warning -- This program may not be used in any manner that
 competes with the business of Gaussian, Inc. or will provide
 assistance to any competitor of Gaussian, Inc.  The licensee
 of this program is prohibited from giving any competitor of
 Gaussian, Inc. access to this program.  By using this program,
 the user acknowledges that Gaussian, Inc. is engaged in the
 business of creating and licensing software in the field of
 computational chemistry and represents and warrants to the
 licensee that it is not a competitor of Gaussian, Inc. and that
 it will not use this program in any manner prohibited above.
 ---------------------------------------------------------------
  

 Cite this work as:
 Gaussian 16, Revision C.01,
 M. J. Frisch, G. W. Trucks, H. B. Schlegel, G. E. Scuseria, 
 M. A. Robb, J. R. Cheeseman, G. Scalmani, V. Barone, 
 G. A. Petersson, H. Nakatsuji, X. Li, M. Caricato, A. V. Marenich, 
 J. Bloino, B. G. Janesko, R. Gomperts, B. Mennucci, H. P. Hratchian, 
 J. V. Ortiz, A. F. Izmaylov, J. L. Sonnenberg, D. Williams-Young, 
 F. Ding, F. Lipparini, F. Egidi, J. Goings, B. Peng, A. Petrone, 
 T. Henderson, D. Ranasinghe, V. G. Zakrzewski, J. Gao, N. Rega, 
 G. Zheng, W. Liang, M. Hada, M. Ehara, K. Toyota, R. Fukuda, 
 J. Hasegawa, M. Ishida, T. Nakajima, Y. Honda, O. Kitao, H. Nakai, 
 T. Vreven, K. Throssell, J. A. Montgomery, Jr., J. E. Peralta, 
 F. Ogliaro, M. J. Bearpark, J. J. Heyd, E. N. Brothers, K. N. Kudin, 
 V. N. Staroverov, T. A. Keith, R. Kobayashi, J. Normand, 
 K. Raghavachari, A. P. Rendell, J. C. Burant, S. S. Iyengar, 
 J. Tomasi, M. Cossi, J. M. Millam, M. Klene, C. Adamo, R. Cammi, 
 J. W. Ochterski, R. L. Martin, K. Morokuma, O. Farkas, 
 J. B. Foresman, and D. J. Fox, Gaussian, Inc., Wallingford CT, 2019.
 
 ******************************************
 Gaussian 16:  ES64L-G16RevC.01  3-Jul-2019
                27-Jan-2026 
 ******************************************
 %nprocshared=64
 Will use up to   64 processors via shared memory.
 %mem=200GB
 -----------------------------
 # 6-31G* wB97XD pop=hirshfeld
 -----------------------------
 1/38=1,172=1/1;
 2/12=2,17=6,18=5,40=1/2;
 3/5=1,6=6,7=1,11=2,25=1,30=1,74=-58/1,2,3;
 4//1;
 5/5=2,38=5/2;
 6/7=2,8=2,9=2,10=2,28=1,79=1/1;
 99/5=1,9=1/99;
 -----------------
 CSA_apo_truncated
 -----------------
 Symbolic Z-matrix:
 Charge = -2 Multiplicity = 1
 H                     46.894    33.749    31.039 
 C                     46.354    34.588    30.601 
 H                     45.954    34.284    29.633 
 C                     45.171    34.947    31.514 
 H                     44.421    34.157    31.449 
 H                     45.513    34.98     32.548 
 C                     44.523    36.28     31.198 
 C                     43.462    36.358    30.277 
 H                     43.097    35.463    29.792 
 C                     42.881    37.608    29.986 
 H                     42.072    37.688    29.28 
 C                     43.359    38.777    30.615 
 O                     42.789    39.973    30.328 
 H                     43.146    40.701    30.896 
 C                     44.424    38.697    31.534 
 H                     44.793    39.596    32.007 
 C                     45.003    37.449    31.821 
 H                     45.826    37.392    32.519 
 C                     47.268    35.8      30.346 
 O                     47.265    36.356    29.248 
 N                     48.114    36.152    31.322 
 H                     48.063    35.649    32.198 
 C                     49.06     37.273    31.205 
 H                     48.495    38.167    30.94 
 C                     49.751    37.519    32.568 
 H                     50.228    36.585    32.873 
 C                     50.856    38.585    32.478 
 H                     51.24     38.803    33.473 
 H                     50.467    39.498    32.029 
 H                     51.675    38.22     31.862 
 C                     48.746    37.905    33.68 
 H                     48.006    37.114    33.786 
 H                     49.284    37.963    34.626 
 C                     48.008    39.236    33.475 
 H                     47.341    39.415    34.319 
 H                     47.415    39.214    32.562 
 H                     48.721    40.056    33.422 
 H                     49.779    37.127    30.399 
 H                     49.262    35.359    26.913 
 C                     48.681    35.487    25.999 
 H                     49.251    35.086    25.163 
 C                     47.36     34.711    26.094 
 H                     46.837    34.833    25.146 
 H                     46.749    35.157    26.88 
 C                     47.498    33.204    26.37 
 H                     48.025    33.043    27.306 
 C                     46.1      32.611    26.516 
 H                     46.162    31.539    26.7 
 H                     45.518    32.802    25.619 
 H                     45.602    33.087    27.359 
 C                     48.257    32.467    25.265 
 H                     48.228    31.392    25.445 
 H                     47.819    32.68     24.291 
 H                     49.298    32.787    25.26 
 C                     48.437    36.973    25.698 
 O                     48.574    37.393    24.551 
 N                     48.151    37.782    26.725 
 H                     48.026    37.355    27.638 
 C                     48.063    39.251    26.62 
 H                     47.333    39.51     25.856 
 C                     47.584    39.847    27.961 
 H                     48.218    39.469    28.763 
 C                     47.639    41.378    27.996 
 H                     48.65     41.735    27.811 
 H                     46.975    41.786    27.239 
 H                     47.331    41.734    28.979 
 C                     46.133    39.441    28.253 
 H                     45.85     39.787    29.245 
 H                     46.021    38.358    28.232 
 H                     45.459    39.877    27.515 
 C                     49.402    39.858    26.18 
 O                     49.439    40.688    25.269 
 N                     50.506    39.411    26.781 
 H                     50.401    38.734    27.532 
 C                     51.864    39.888    26.503 
 H                     51.9      40.963    26.681 
 C                     52.82     39.194    27.482 
 H                     52.475    39.371    28.498 
 H                     52.815    38.12     27.306 
 C                     54.244    39.715    27.356 
 O                     54.455    40.932    27.56 
 O                     55.154    38.917    27.04 
 H                     52.184    39.714    25.476 
 H                     49.768    39.237    22.45 
 C                     48.927    39.653    21.895 
 H                     48.353    40.282    22.576 
 H                     49.31     40.282    21.093 
 H                     48.239    38.927    21.463 
 H                     43.03     34.279    24.371 
 C                     42.526    34.831    25.164 
 H                     42.885    34.47     26.129 
 C                     42.821    36.35     25.07 
 H                     42.602    36.675    24.051 
 C                     41.932    37.164    26.032 
 H                     42.052    36.794    27.05 
 H                     40.883    37.096    25.745 
 H                     42.203    38.219    26.007 
 C                     44.303    36.653    25.374 
 H                     44.486    36.597    26.449 
 H                     44.924    35.904    24.895 
 C                     44.756    38.021    24.847 
 H                     45.836    38.101    24.946 
 H                     44.5      38.122    23.793 
 H                     44.29     38.825    25.414 
 H                     41.453    34.642    25.125 
 H                     37.816    32.635    28.063 
 C                     36.813    32.932    28.368 
 H                     36.788    33.003    29.453 
 C                     36.495    34.322    27.802 
 H                     36.782    34.37     26.75 
 H                     35.419    34.49     27.849 
 C                     37.173    35.432    28.576 
 C                     38.368    36.015    28.116 
 H                     38.805    35.693    27.184 
 C                     39.002    37.012    28.882 
 H                     39.925    37.451    28.54 
 C                     38.431    37.439    30.1 
 O                     39.022    38.412    30.835 
 H                     39.527    39.016    30.269 
 C                     37.231    36.859    30.551 
 H                     36.789    37.193    31.475 
 C                     36.613    35.852    29.794 
 H                     35.715    35.387    30.164 
 H                     36.045    32.213    28.083 
 H                     33.371    40.886    31.287 
 C                     34.276    41.437    31.542 
 H                     34.736    40.964    32.408 
 C                     35.329    41.409    30.412 
 H                     34.912    41.868    29.522 
 C                     36.59     42.19     30.805 
 H                     37.353    42.085    30.032 
 H                     36.363    43.252    30.902 
 H                     36.983    41.82     31.751 
 C                     35.75     39.982    30.045 
 H                     34.897    39.425    29.662 
 H                     36.521    40.004    29.274 
 H                     36.137    39.474    30.925 
 C                     33.92     42.867    31.938 
 O                     33.285    43.589    31.171 
 N                     34.33     43.265    33.141 
 H                     34.834    42.592    33.708 
 C                     34.188    44.613    33.699 
 H                     33.517    45.213    33.082 
 C                     33.589    44.53     35.114 
 H                     34.203    43.86     35.715 
 H                     33.623    45.518    35.568 
 C                     32.141    44.022    35.132 
 H                     32.072    43.11     34.536 
 H                     31.489    44.776    34.683 
 C                     31.678    43.703    36.556 
 O                     31.76     42.522    36.968 
 O                     31.247    44.616    37.293 
 C                     35.561    45.3      33.719 
 O                     36.342    45.114    34.656 
 N                     35.862    46.068    32.669 
 H                     35.194    46.158    31.92 
 C                     37.164    46.712    32.465 
 H                     37.702    46.708    33.408 
 C                     38.012    45.866    31.501 
 H                     37.476    45.756    30.556 
 H                     38.152    44.872    31.929 
 C                     39.39     46.483    31.233 
 O                     39.869    47.281    32.069 
 O                     39.965    46.175    30.17 
 C                     37.034    48.169    31.954 
 O                     36.446    48.386    30.887 
 N                     37.583    49.166    32.681 
 C                     37.861    50.494    32.165 
 H                     38.806    50.465    31.625 
 H                     37.075    50.85     31.502 
 C                     37.994    51.401    33.386 
 H                     38.695    52.214    33.202 
 H                     37.018    51.795    33.664 
 C                     38.498    50.461    34.481 
 H                     38.15     50.775    35.464 
 H                     39.584    50.44     34.472 
 C                     37.95     49.082    34.098 
 H                     38.739    48.343    34.241 
 C                     36.742    48.721    34.973 
 O                     35.601    49.063    34.658 
 N                     36.976    48.091    36.125 
 H                     37.918    47.766    36.32 
 C                     35.909    47.832    37.091 
 H                     35.159    47.213    36.594 
 C                     36.438    47.044    38.296 
 H                     37.231    47.612    38.783 
 H                     36.868    46.103    37.946 
 C                     35.343    46.741    39.3 
 C                     34.414    45.719    39.029 
 H                     34.496    45.134    38.124 
 C                     33.34     45.493    39.906 
 H                     32.601    44.74     39.67 
 C                     33.191    46.28     41.058 
 H                     32.348    46.122    41.717 
 C                     34.113    47.302    41.33 
 H                     33.964    47.914    42.203 
 C                     35.185    47.54     40.45 
 H                     35.883    48.341    40.644 
 H                     35.427    48.764    37.386 
 H                     36.873    43.909    22.239 
 C                     37.317    44.529    23.018 
 H                     37.149    45.578    22.772 
 C                     36.592    44.235    24.336 
 H                     36.725    43.185    24.596 
 H                     35.524    44.402    24.187 
 C                     37.046    45.083    25.504 
 C                     36.348    46.261    25.834 
 H                     35.492    46.567    25.251 
 C                     36.756    47.039    26.933 
 H                     36.211    47.933    27.204 
 C                     37.87     46.645    27.693 
 H                     38.182    47.229    28.55 
 C                     38.57     45.473    27.36 
 H                     39.418    45.164    27.959 
 C                     38.154    44.685    26.275 
 H                     38.687    43.771    26.05 
 C                     38.837    44.324    23.139 
 O                     39.584    45.306    23.098 
 N                     39.319    43.077    23.22 
 H                     38.668    42.298    23.286 
 C                     40.763    42.802    23.272 
 H                     41.202    43.43     24.05 
 C                     41.04     41.339    23.64 
 H                     40.415    40.685    23.03 
 H                     42.08     41.111    23.405 
 C                     40.846    41.03     25.111 
 C                     39.846    40.131    25.525 
 H                     39.207    39.66     24.794 
 C                     39.684    39.844    26.892 
 H                     38.928    39.157    27.227 
 C                     40.523    40.447    27.847 
 O                     40.381    40.128    29.157 
 H                     41.223    40.29     29.622 
 C                     41.532    41.341    27.435 
 H                     42.173    41.81     28.169 
 C                     41.69     41.632    26.068 
 H                     42.459    42.329    25.761 
 C                     41.483    43.169    21.97 
 O                     42.615    43.648    22.028 
 N                     40.838    43.029    20.8 
 H                     39.928    42.576    20.8 
 C                     41.395    43.524    19.526 
 H                     42.369    43.062    19.353 
 C                     40.466    43.187    18.354 
 H                     39.447    43.463    18.629 
 H                     40.752    43.788    17.49 
 C                     40.522    41.709    17.943 
 H                     41.454    41.5      17.416 
 H                     40.464    41.083    18.83 
 C                     39.325    41.421    17.035 
 H                     38.447    41.82     17.54 
 H                     39.439    41.963    16.1 
 N                     39.123    39.984    16.758 
 H                     39.93     39.42     16.551 
 C                     37.941    39.391    16.741 
 N                     36.842    40.076    16.847 
 H                     36.88     41.085    16.764 
 H                     35.939    39.626    16.889 
 N                     37.81     38.101    16.636 
 H                     38.586    37.515    16.367 
 H                     36.873    37.718    16.603 
 C                     41.641    45.03     19.562 
 O                     42.691    45.464    19.097 
 N                     40.721    45.823    20.121 
 H                     39.872    45.4      20.472 
 C                     40.928    47.267    20.313 
 H                     41.23     47.714    19.364 
 C                     39.633    47.954    20.772 
 H                     39.867    48.975    21.079 
 H                     39.244    47.428    21.643 
 C                     38.543    48.023    19.694 
 H                     38.776    48.817    18.985 
 H                     38.494    47.081    19.149 
 C                     37.188    48.294    20.335 
 O                     36.832    49.423    20.648 
 N                     36.427    47.262    20.605 
 H                     36.75     46.338    20.35 
 H                     35.536    47.398    21.065 
 C                     42.048    47.554    21.324 
 O                     42.932    48.359    21.035 
 N                     42.047    46.881    22.48 
 H                     41.286    46.236    22.662 
 C                     43.019    47.115    23.555 
 H                     42.744    46.512    24.422 
 H                     42.989    48.165    23.846 
 C                     44.453    46.754    23.157 
 O                     45.343    47.607    23.168 
 N                     44.668    45.501    22.747 
 H                     43.867    44.878    22.708 
 C                     45.983    44.912    22.455 
 H                     46.725    45.398    23.087 
 C                     45.958    43.41     22.817 
 H                     45.338    42.891    22.085 
 H                     46.973    43.018    22.73 
 C                     45.425    43.066    24.222 
 H                     44.379    43.361    24.3 
 C                     45.512    41.558    24.453 
 H                     45.104    41.317    25.435 
 H                     44.927    41.036    23.697 
 H                     46.55     41.229    24.401 
 C                     46.219    43.765    25.322 
 H                     47.266    43.46     25.287 
 H                     46.143    44.845    25.209 
 H                     45.79     43.506    26.289 
 C                     46.459    45.108    21.004 
 O                     47.549    44.646    20.654 
 N                     45.663    45.75     20.143 
 H                     44.77     46.076    20.486 
 C                     45.882    45.789    18.692 
 H                     45.846    44.773    18.298 
 H                     45.068    46.349    18.238 
 C                     47.188    46.441    18.224 
 O                     47.755    45.997    17.227 
 N                     47.725    47.422    18.958 
 H                     47.239    47.723    19.796 
 C                     48.878    48.229    18.53 
 H                     49.037    49.02     19.263 
 H                     48.638    48.701    17.577 
 C                     50.209    47.482    18.36 
 O                     51.169    48.072    17.868 
 N                     50.296    46.203    18.748 
 H                     49.468    45.765    19.126 
 C                     51.51     45.384    18.615 
 H                     51.262    44.351    18.861 
 H                     51.859    45.421    17.582 
 C                     52.655    45.83     19.533 
 O                     53.823    45.606    19.215 
 N                     52.325    46.501    20.641 
 H                     51.332    46.563    20.825 
 C                     53.245    47.177    21.576 
 H                     54.231    46.718    21.514 
 C                     53.35     48.668    21.191 
 H                     52.347    49.053    21. 
 H                     53.752    49.236    22.032 
 C                     54.231    48.977    19.969 
 H                     54.099    50.037    19.749 
 H                     53.89     48.419    19.097 
 C                     55.735    48.746    20.203 
 H                     55.962    48.815    21.268 
 H                     56.269    49.552    19.701 
 C                     56.24     47.407    19.646 
 H                     55.928    47.32     18.602 
 H                     55.78     46.586    20.202 
 N                     57.716    47.311    19.735 
 H                     58.056    46.435    19.354 
 H                     58.023    47.368    20.706 
 H                     58.148    48.069    19.216 
 C                     52.842    47.044    23.05 
 O                     53.592    47.495    23.909 
 N                     51.687    46.444    23.352 
 H                     51.161    46.003    22.608 
 C                     51.26     46.169    24.731 
 H                     51.5      47.036    25.342 
 C                     49.74     45.936    24.835 
 H                     49.47     45.044    24.272 
 C                     49.318    45.725    26.294 
 H                     49.786    44.831    26.705 
 H                     49.591    46.593    26.896 
 H                     48.241    45.584    26.338 
 C                     48.936    47.115    24.268 
 H                     49.186    48.032    24.799 
 H                     49.144    47.242    23.206 
 H                     47.87     46.925    24.385 
 C                     52.032    44.963    25.267 
 O                     52.018    43.898    24.646 
 N                     52.688    45.112    26.42 
 H                     52.702    46.046    26.826 
 C                     53.485    44.06     27.077 
 H                     53.324    43.103    26.578 
 C                     54.982    44.417    26.982 
 H                     55.566    43.649    27.49 
 H                     55.15     45.36     27.504 
 C                     55.503    44.567    25.538 
 H                     56.522    44.956    25.57 
 H                     54.899    45.3      25.005 
 C                     55.499    43.252    24.746 
 H                     54.538    42.75     24.865 
 H                     55.621    43.486    23.688 
 N                     56.604    42.377    25.174 
 H                     57.416    42.814    25.583 
 C                     56.641    41.061    25.159 
 N                     55.689    40.306    24.706 
 H                     54.804    40.734    24.469 
 H                     55.639    39.4      25.156 
 N                     57.683    40.465    25.64 
 H                     58.433    41.023    26.02 
 H                     57.749    39.455    25.596 
 C                     53.027    43.883    28.522 
 O                     52.898    44.871    29.241 
 N                     52.796    42.65     28.968 
 H                     53.105    41.876    28.387 
 C                     52.152    42.334    30.246 
 H                     52.042    43.253    30.817 
 C                     50.739    41.811    29.969 
 H                     50.205    41.672    30.91 
 H                     50.786    40.857    29.442 
 H                     50.195    42.532    29.36 
 C                     52.971    41.356    31.107 
 O                     53.471    40.341    30.622 
 N                     53.08     41.633    32.408 
 H                     52.662    42.487    32.767 
 C                     53.824    40.797    33.354 
 H                     53.816    39.769    32.995 
 C                     55.294    41.253    33.406 
 H                     55.754    41.096    32.429 
 H                     55.832    40.644    34.136 
 S                     55.457    43.006    33.868 
 H                     56.766    42.961    34.171 
 H                     53.364    40.786    34.342 
 H                     45.385    38.478    40.466 
 C                     46.435    38.561    40.187 
 H                     47.024    38.055    40.946 
 C                     46.705    37.799    38.884 
 H                     46.376    36.769    39.019 
 H                     47.78     37.788    38.71 
 C                     46.02     38.364    37.635 
 H                     46.423    39.347    37.394 
 H                     44.953    38.463    37.834 
 S                     46.25     37.274    36.209 
 C                     44.772    37.648    35.233 
 H                     43.886    37.601    35.864 
 H                     44.861    38.641    34.791 
 H                     44.672    36.907    34.441 
 H                     46.78     39.593    40.13 
 H                     49.621    42.621    38.075 
 C                     50.213    42.685    37.162 
 H                     51.215    42.308    37.365 
 C                     49.593    41.772    36.084 
 H                     50.313    41.628    35.284 
 H                     49.42     40.787    36.515 
 C                     48.301    42.242    35.45 
 C                     48.285    42.673    34.108 
 H                     49.202    42.72     33.537 
 C                     47.066    43.002    33.489 
 H                     47.032    43.304    32.451 
 C                     45.872    42.938    34.22 
 H                     44.937    43.216    33.756 
 C                     45.894    42.535    35.564 
 H                     44.977    42.519    36.121 
 C                     47.1      42.17     36.176 
 H                     47.099    41.837    37.202 
 C                     50.404    44.13     36.699 
 O                     49.799    45.068    37.233 
 N                     51.275    44.291    35.706 
 H                     51.765    43.461    35.376 
 C                     51.54     45.542    34.998 
 H                     50.791    46.282    35.28 
 C                     52.922    46.07     35.412 
 H                     52.877    46.355    36.464 
 H                     53.658    45.271    35.304 
 C                     53.388    47.272    34.574 
 H                     53.564    46.945    33.55 
 H                     52.619    48.047    34.567 
 C                     54.694    47.854    35.116 
 H                     55.121    48.504    34.35 
 H                     55.402    47.047    35.314 
 N                     54.455    48.633    36.34 
 H                     53.565    48.512    36.823 
 C                     55.24     49.549    36.863 
 N                     56.443    49.784    36.425 
 H                     56.831    49.205    35.69 
 H                     57.016    50.495    36.87 
 N                     54.806    50.241    37.868 
 H                     53.856    50.074    38.193 
 H                     55.352    50.982    38.263 
 C                     51.422    45.318    33.496 
 O                     51.931    44.324    32.973 
 N                     50.802    46.275    32.814 
 H                     50.415    47.054    33.34 
 C                     50.84     46.417    31.354 
 H                     51.355    45.556    30.939 
 C                     49.432    46.423    30.726 
 H                     49.542    46.494    29.643 
 C                     48.708    45.113    31.041 
 H                     48.515    45.046    32.111 
 H                     49.314    44.266    30.727 
 H                     47.754    45.081    30.516 
 C                     48.552    47.583    31.195 
 H                     48.427    47.558    32.277 
 H                     47.57     47.511    30.729 
 H                     49.006    48.526    30.9 
 C                     51.663    47.65     30.978 
 O                     51.706    48.628    31.721 
 N                     52.354    47.596    29.846 
 H                     52.337    46.731    29.317 
 C                     53.236    48.657    29.347 
 H                     53.03     49.583    29.882 
 C                     54.71     48.293    29.58 
 H                     55.324    49.122    29.225 
 H                     54.962    47.403    29.001 
 C                     55.033    48.039    31.06 
 H                     54.59     47.091    31.373 
 H                     54.6      48.839    31.662 
 C                     56.541    47.986    31.301 
 O                     57.26     47.259    30.579 
 O                     57.041    48.683    32.215 
 C                     52.966    48.91     27.863 
 O                     52.826    47.956    27.096 
 N                     52.855    50.184    27.472 
 H                     53.088    50.911    28.143 
 C                     52.401    50.618    26.143 
 H                     52.944    50.043    25.391 
 C                     50.895    50.288    25.98 
 H                     50.758    49.21     26.051 
 H                     50.59     50.561    24.97 
 C                     49.929    50.957    26.971 
 H                     50.274    51.96     27.212 
 H                     48.966    51.057    26.471 
 S                     49.632    50.019    28.497 
 C                     50.311    51.132    29.752 
 H                     51.351    51.355    29.525 
 H                     49.734    52.057    29.775 
 H                     50.253    50.651    30.727 
 C                     52.738    52.109    25.901 
 O                     53.746    52.61     26.404 
 N                     51.929    52.823    25.104 
 H                     51.105    52.371    24.737 
 C                     52.113    54.245    24.763 
 H                     52.889    54.659    25.406 
 C                     52.586    54.407    23.3 
 H                     51.81     54.021    22.638 
 C                     52.848    55.872    22.927 
 H                     53.665    56.262    23.528 
 H                     53.131    55.94     21.877 
 H                     51.955    56.476    23.077 
 C                     53.885    53.635    23.02 
 H                     54.664    53.958    23.71 
 H                     53.718    52.565    23.141 
 H                     54.207    53.814    21.993 
 C                     50.823    55.037    25.024 
 O                     49.751    54.662    24.544 
 N                     50.936    56.159    25.737 
 H                     51.87     56.41     26.053 
 C                     49.863    57.09     26.119 
 H                     48.942    56.846    25.588 
 C                     49.61     56.974    27.63 
 H                     49.044    56.062    27.825 
 H                     50.574    56.887    28.132 
 C                     48.898    58.132    28.26 
 C                     49.49     59.094    29.004 
 H                     50.548    59.123    29.24 
 N                     48.553    60.036    29.381 
 H                     48.772    60.846    29.944 
 C                     47.307    59.742    28.868 
 C                     46.07     60.399    28.925 
 H                     45.971    61.334    29.458 
 C                     44.969    59.834    28.259 
 H                     44.011    60.334    28.267 
 C                     45.119    58.621    27.562 
 H                     44.272    58.188    27.05 
 C                     46.367    57.974    27.506 
 H                     46.471    57.054    26.949 
 C                     47.494    58.518    28.156 
 H                     50.144    58.113    25.868 
 H                     54.375    54.486    28.881 
 C                     53.834    54.416    29.825 
 H                     54.389    54.974    30.579 
 C                     52.461    55.088    29.658 
 H                     51.964    55.136    30.628 
 H                     52.601    56.105    29.287 
 S                     51.418    54.152    28.506 
 H                     50.288    54.833    28.725 
 C                     53.703    52.978    30.358 
 O                     53.891    51.99     29.643 
 N                     53.339    52.887    31.635 
 H                     53.173    53.755    32.137 
 C                     53.015    51.669    32.365 
 H                     52.853    50.857    31.659 
 C                     54.194    51.296    33.27 
 H                     54.388    52.102    33.979 
 H                     55.085    51.116    32.667 
 H                     53.947    50.394    33.826 
 C                     51.718    51.865    33.166 
 O                     51.376    52.986    33.545 
 N                     50.992    50.779    33.414 
 H                     51.306    49.895    33.027 
 C                     49.755    50.767    34.187 
 H                     49.737    51.638    34.84 
 C                     48.566    50.866    33.214 
 H                     48.674    50.074    32.479 
 H                     48.615    51.819    32.686 
 C                     47.18     50.72     33.865 
 H                     47.159    49.828    34.485 
 C                     46.834    51.925    34.736 
 H                     47.556    52.006    35.543 
 H                     46.843    52.838    34.142 
 H                     45.848    51.784    35.174 
 C                     46.119    50.57     32.779 
 H                     46.347    49.703    32.158 
 H                     46.078    51.465    32.161 
 H                     45.147    50.4      33.239 
 C                     49.718    49.514    35.066 
 O                     49.799    48.389    34.571 
 N                     49.597    49.711    36.375 
 H                     49.544    50.665    36.709 
 C                     49.451    48.628    37.347 
 H                     50.       47.755    36.99 
 C                     50.081    49.049    38.681 
 H                     49.527    49.893    39.089 
 H                     50.002    48.225    39.384 
 C                     51.559    49.415    38.548 
 O                     52.376    48.515    38.242 
 O                     51.932    50.588    38.79 
 C                     47.973    48.234    37.513 
 O                     47.147    49.049    37.917 
 N                     47.637    46.962    37.278 
 H                     48.369    46.327    36.969 
 C                     46.253    46.438    37.253 
 H                     45.57     47.208    37.613 
 C                     45.827    46.098    35.801 
 H                     46.436    45.264    35.46 
 C                     44.344    45.709    35.69 
 H                     44.074    45.573    34.641 
 H                     44.148    44.766    36.193 
 H                     43.717    46.489    36.117 
 C                     46.063    47.258    34.825 
 H                     45.698    46.991    33.831 
 H                     47.128    47.466    34.738 
 H                     45.54     48.15     35.165 
 C                     46.114    45.222    38.183 
 O                     47.102    44.537    38.464 
 N                     44.908    44.962    38.701 
 H                     44.151    45.607    38.487 
 C                     44.549    43.701    39.371 
 H                     45.358    42.993    39.217 
 C                     44.366    43.87     40.902 
 H                     43.757    44.757    41.08 
 C                     43.655    42.654    41.536 
 H                     43.596    42.761    42.617 
 H                     42.631    42.576    41.17 
 H                     44.193    41.736    41.298 
 C                     45.736    44.056    41.586 
 H                     46.326    44.763    41.011 
 H                     46.265    43.104    41.595 
 C                     45.666    44.59     43.019 
 H                     45.093    45.516    43.043 
 H                     46.679    44.79     43.359 
 H                     45.214    43.859    43.688 
 C                     43.308    43.115    38.7 
 O                     42.228    43.695    38.78 
 N                     43.45     41.947    38.075 
 H                     44.355    41.497    38.107 
 C                     42.317    41.201    37.522 
 H                     41.51     41.891    37.276 
 C                     42.698    40.456    36.238 
 H                     43.649    39.949    36.386 
 H                     41.941    39.702    36.023 
 C                     42.804    41.346    35.01 
 O                     42.619    42.555    35.005 
 O                     43.149    40.655    33.906 
 H                     43.253    41.284    33.145 
 C                     41.8      40.203    38.552 
 O                     42.587    39.456    39.139 
 N                     40.479    40.151    38.715 
 H                     39.923    40.858    38.239 
 C                     39.76     39.18     39.55 
 H                     40.473    38.52     40.041 
 C                     38.954    39.903    40.645 
 H                     38.204    40.535    40.174 
 C                     38.235    38.908    41.556 
 H                     37.683    39.455    42.32 
 H                     38.961    38.249    42.033 
 H                     37.525    38.311    40.986 
 C                     39.841    40.798    41.521 
 H                     40.319    41.567    40.915 
 H                     40.606    40.202    42.016 
 H                     39.228    41.298    42.268 
 C                     38.854    38.334    38.655 
 O                     38.025    38.884    37.93 
 N                     39.001    37.009    38.682 
 H                     39.638    36.614    39.369 
 C                     38.331    36.071    37.764 
 H                     37.627    36.609    37.132 
 C                     39.372    35.395    36.851 
 H                     38.897    34.572    36.315 
 H                     40.17     34.978    37.468 
 C                     39.98     36.344    35.815 
 H                     40.365    37.231    36.319 
 H                     39.191    36.646    35.126 
 S                     41.332    35.602    34.859 
 C                     41.641    36.911    33.641 
 H                     41.86     37.853    34.145 
 H                     42.493    36.633    33.022 
 H                     40.769    37.033    32.999 
 H                     37.775    35.302    38.3 
 H                     36.982    31.484    32.159 
 C                     36.768    32.394    32.719 
 H                     36.875    32.185    33.784 
 C                     37.752    33.532    32.352 
 H                     37.587    33.794    31.309 
 C                     37.45     34.768    33.215 
 H                     36.452    35.15     33.002 
 H                     38.164    35.563    33.003 
 H                     37.513    34.513    34.274 
 C                     39.242    33.147    32.504 
 H                     39.399    32.115    32.196 
 H                     39.541    33.238    33.549 
 C                     40.164    34.01     31.63 
 H                     39.895    33.894    30.579 
 H                     40.081    35.06     31.902 
 H                     41.198    33.691    31.769 
 H                     35.735    32.679    32.517 
 H                     35.576    38.527    34.714 
 C                     36.5      39.053    34.953 
 H                     36.935    38.556    35.815 
 C                     37.518    38.931    33.805 
 H                     37.551    37.886    33.502 
 H                     37.198    39.529    32.954 
 C                     38.947    39.326    34.209 
 H                     39.134    38.961    35.218 
 H                     39.634    38.809    33.542 
 S                     39.386    41.083    34.159 
 C                     39.951    41.256    32.443 
 H                     39.148    40.989    31.758 
 H                     40.806    40.602    32.271 
 H                     40.254    42.288    32.259 
 C                     36.239    40.512    35.352 
 O                     35.324    41.154    34.83 
 N                     37.026    41.031    36.295 
 H                     37.721    40.421    36.709 
 C                     36.95     42.397    36.82 
 H                     36.355    43.017    36.15 
 C                     36.27     42.371    38.203 
 H                     36.867    41.767    38.884 
 H                     36.221    43.388    38.594 
 C                     34.853    41.787    38.14 
 H                     34.268    42.397    37.458 
 H                     34.879    40.77     37.753 
 C                     34.149    41.72     39.485 
 O                     34.688    41.294    40.502 
 N                     32.889    42.071    39.527 
 H                     32.421    42.353    38.663 
 H                     32.375    41.963    40.381 
 C                     38.359    42.999    36.906 
 O                     39.171    42.536    37.711 
 N                     38.653    44.005    36.077 
 H                     37.931    44.342    35.446 
 C                     39.963    44.652    35.992 
 H                     40.732    43.971    36.361 
 C                     40.276    44.933    34.52 
 H                     41.264    45.386    34.429 
 H                     39.536    45.614    34.105 
 H                     40.269    44.005    33.95 
 C                     39.998    45.925    36.853 
 O                     39.557    47.       36.442 
 N                     40.506    45.818    38.078 
 H                     40.902    44.926    38.356 
 C                     40.667    46.954    38.984 
 H                     39.77     47.572    38.938 
 C                     40.814    46.455    40.431 
 H                     41.113    47.294    41.06 
 H                     41.609    45.71     40.482 
 C                     39.534    45.863    40.993 
 C                     39.171    44.533    40.7 
 H                     39.827    43.911    40.103 
 C                     37.929    44.028    41.13 
 H                     37.627    43.025    40.87 
 C                     37.048    44.854    41.857 
 O                     35.805    44.41     42.18 
 H                     35.144    45.077    41.953 
 C                     37.433    46.168    42.196 
 H                     36.76     46.788    42.764 
 C                     38.671    46.674    41.757 
 H                     38.946    47.695    41.976 
 C                     41.86     47.813    38.543 
 O                     43.009    47.382    38.659 
 N                     41.569    49.027    38.061 
 H                     40.588    49.237    37.928 
 C                     42.518    50.112    37.763 
 H                     43.176    50.247    38.624 
 C                     43.395    49.75     36.549 
 H                     44.203    50.48     36.491 
 H                     43.875    48.79     36.725 
 C                     42.722    49.712    35.206 
 C                     42.07     48.65     34.682 
 H                     41.948    47.688    35.161 
 N                     41.58     48.968    33.432 
 H                     41.038    48.31     32.853 
 C                     41.877    50.265    33.085 
 C                     41.597    51.04     31.95 
 H                     41.059    50.6      31.122 
 C                     42.033    52.375    31.906 
 H                     41.825    52.982    31.037 
 C                     42.755    52.909    32.988 
 H                     43.11     53.929    32.943 
 C                     43.043    52.115    34.117 
 H                     43.634    52.52     34.921 
 C                     42.598    50.776    34.205 
 C                     41.799    51.451    37.492 
 O                     40.609    51.497    37.15 
 N                     42.542    52.553    37.596 
 H                     43.493    52.461    37.934 
 C                     42.195    53.859    37.015 
 H                     41.71     53.702    36.051 
 C                     41.211    54.624    37.91 
 H                     40.352    53.993    38.134 
 H                     40.855    55.504    37.379 
 O                     41.814    55.033    39.115 
 H                     41.637    54.316    39.757 
 C                     43.469    54.676    36.758 
 O                     44.582    54.191    36.963 
 N                     43.333    55.921    36.304 
 H                     42.394    56.286    36.159 
 C                     44.451    56.821    35.991 
 H                     45.079    56.318    35.255 
 C                     43.896    58.093    35.328 
 H                     44.749    58.656    34.944 
 H                     43.287    57.815    34.467 
 C                     43.09     59.04     36.238 
 H                     42.967    59.973    35.692 
 H                     43.669    59.265    37.136 
 C                     41.682    58.572    36.634 
 O                     41.122    57.608    36.061 
 O                     41.075    59.204    37.523 
 H                     45.105    57.052    36.832 
 H                     47.132    54.522    38.635 
 C                     47.86     53.724    38.486 
 H                     48.551    53.752    39.323 
 C                     47.12     52.37     38.531 
 H                     46.381    52.322    37.733 
 H                     47.84     51.569    38.373 
 C                     46.423    52.107    39.856 
 O                     45.201    52.051    39.949 
 N                     47.185    51.967    40.919 
 H                     48.196    52.023    40.816 
 H                     46.754    51.898    41.834 
 C                     48.741    53.883    37.223 
 O                     49.581    53.022    36.947 
 N                     48.542    54.953    36.44 
 H                     47.88     55.647    36.758 
 C                     49.23     55.22     35.169 
 H                     49.461    54.269    34.687 
 C                     48.24     55.987    34.264 
 H                     47.9      56.867    34.811 
 H                     47.372    55.352    34.086 
 C                     48.788    56.471    32.906 
 H                     49.638    57.133    33.064 
 C                     49.22     55.323    31.995 
 H                     48.408    54.605    31.879 
 H                     49.505    55.713    31.019 
 H                     50.085    54.823    32.427 
 C                     47.701    57.263    32.176 
 H                     46.84     56.625    31.979 
 H                     47.392    58.109    32.789 
 H                     48.092    57.64     31.231 
 H                     50.165    55.761    35.314 
 O                     41.946    46.503    28.614 
 H                     42.547    46.778    29.338 
 H                     41.123    46.351    29.175 
 O                     44.439    51.076    24.402 
 H                     44.559    50.253    23.905 
 H                     45.206    51.033    25.018 
 O                     43.129    44.745    26.957 
 H                     42.587    45.436    27.421 
 H                     43.577    44.354    27.727 
 O                     42.611    54.716    27.047 
 H                     43.569    54.746    27.188 
 H                     42.558    54.075    26.298 
 O                     42.526    52.853    25.046 
 H                     43.213    52.144    24.902 
 H                     42.457    53.158    24.103 
 O                     40.771    51.72     27.021 
 H                     41.438    52.043    26.391 
 H                     40.665    52.497    27.604 
 O                     40.289    53.983    28.559 
 H                     41.182    54.363    28.46 
 H                     40.083    54.252    29.484 
 O                     46.865    48.965    21.389 
 H                     46.377    48.488    22.098 
 H                     46.108    49.421    20.949 
 O                     48.589    51.064    21.765 
 H                     48.073    50.256    21.533 
 H                     48.232    51.257    22.644 
 O                     38.437    50.458    27.216 
 H                     38.552    49.836    27.957 
 H                     39.367    50.802    27.143 
 O                     38.964    47.543    24.629 
 H                     38.881    47.127    25.508 
 H                     39.291    46.79     24.1 
 O                     39.816    54.07     25.016 
 H                     40.525    53.455    24.771 
 H                     39.288    54.094    24.189 
 O                     44.731    50.047    20.114 
 H                     44.655    49.858    19.146 
 H                     44.02     49.443    20.444 
 O                     40.577    56.529    26.929 
 H                     41.026    57.345    26.613 
 H                     41.351    55.915    26.933 
 O                     42.199    53.537    22.443 
 H                     42.771    53.101    21.763 
 H                     41.316    53.239    22.104 
 O                     37.432    49.759    24.821 
 H                     37.95     48.92     24.68 
 H                     37.809    50.005    25.705 
 O                     39.609    55.179    30.943 
 H                     39.825    56.107    30.69 
 H                     38.658    55.29     31.171 
 O                     50.074    44.731    21.607 
 H                     49.135    44.67     21.336 
 H                     50.134    43.922    22.174 
 O                     43.861    52.609    20.47 
 H                     43.92     52.763    19.496 
 H                     44.22     51.686    20.494 
 O                     44.903    55.007    21.28 
 H                     44.266    55.375    21.929 
 H                     44.605    54.073    21.245 
 O                     50.128    42.549    23.285 
 H                     49.838    41.858    23.923 
 H                     50.917    42.89     23.772 
 O                     42.855    56.234    22.648 
 H                     42.395    55.369    22.692 
 H                     42.197    56.756    22.14 
 O                     38.316    50.809    22.443 
 H                     38.015    50.482    23.32 
 H                     37.722    50.295    21.857 
 O                     37.371    52.957    26.828 
 H                     36.938    52.797    25.971 
 H                     37.701    52.049    27.03 
 O                     48.886    56.438    22.633 
 H                     48.292    56.074    21.94 
 H                     49.037    55.641    23.181 
 O                     44.034    58.281    24.111 
 H                     43.777    57.456    23.641 
 H                     45.012    58.192    24.092 
 O                     41.986    58.705    25.971 
 H                     42.738    58.615    25.344 
 H                     41.287    59.017    25.354 
 O                     49.921    52.777    20.125 
 H                     49.419    52.183    20.743 
 H                     50.466    52.078    19.675 
 O                     39.791    52.82     21.496 
 H                     39.362    51.954    21.75 
 H                     39.124    53.417    21.934 
 O                     39.815    57.731    30.024 
 H                     40.373    58.318    29.459 
 H                     39.027    57.654    29.43 
 O                     46.925    58.097    23.744 
 H                     47.221    58.825    23.141 
 H                     47.527    57.387    23.425 
 O                     47.221    56.009    20.496 
 H                     46.378    55.576    20.799 
 H                     46.827    56.831    20.112 
 O                     38.874    55.022    33.87 
 H                     39.527    54.78     33.182 
 H                     38.086    55.185    33.297 
 
 Stoichiometry    C277H510N56O96S6(2-)
 Framework group  C1[X(C277H510N56O96S6)]
 Deg. of freedom  2829
 Full point group                 C1      NOp   1
 Largest Abelian subgroup         C1      NOp   1
 Largest concise Abelian subgroup C1      NOp   1
                         Standard orientation:                         
 ---------------------------------------------------------------------
 Center     Atomic      Atomic             Coordinates (Angstroms)
 Number     Number       Type             X           Y           Z
 ---------------------------------------------------------------------
      1          1           0       -4.669033    8.845042   -7.315388
      2          6           0       -4.360058    8.510382   -6.325488
      3          1           0       -4.154831    9.383783   -5.705414
      4          6           0       -5.517646    7.730600   -5.682160
      5          1           0       -6.317037    8.428714   -5.428314
      6          1           0       -5.924444    7.027983   -6.408833
      7          6           0       -5.127872    6.944709   -4.446401
      8          6           0       -5.199850    7.536091   -3.171594
      9          1           0       -5.541015    8.556728   -3.064913
     10          6           0       -4.820613    6.794056   -2.035678
     11          1           0       -4.863810    7.231530   -1.052791
     12          6           0       -4.371424    5.463715   -2.173906
     13          8           0       -4.012270    4.760069   -1.072281
     14          1           0       -3.803809    3.816076   -1.285534
     15          6           0       -4.296563    4.874887   -3.451742
     16          1           0       -3.943586    3.858516   -3.554149
     17          6           0       -4.673689    5.618043   -4.583382
     18          1           0       -4.606099    5.167014   -5.563069
     19          6           0       -3.065168    7.679287   -6.369154
     20          8           0       -2.133409    7.946759   -5.610845
     21          7           0       -2.968464    6.735312   -7.313482
     22          1           0       -3.773058    6.571134   -7.903956
     23          6           0       -1.780109    5.884862   -7.486084
     24          1           0       -1.569161    5.399758   -6.532742
     25          6           0       -2.070486    4.787234   -8.538063
     26          1           0       -2.380686    5.283445   -9.460267
     27          6           0       -0.822345    3.951909   -8.869511
     28          1           0       -1.093752    3.128713   -9.528064
     29          1           0       -0.376312    3.557525   -7.957367
     30          1           0       -0.084026    4.571345   -9.374115
     31          6           0       -3.225263    3.849143   -8.111401
     32          1           0       -4.124625    4.439012   -7.944911
     33          1           0       -3.440913    3.170500   -8.936425
     34          6           0       -2.962655    3.000196   -6.858981
     35          1           0       -3.829910    2.369928   -6.659241
     36          1           0       -2.786164    3.633687   -5.991086
     37          1           0       -2.100140    2.356106   -7.016444
     38          1           0       -0.888106    6.462285   -7.728625
     39          1           0        0.133936   10.067567   -6.502787
     40          6           0        0.387146   10.585294   -5.576945
     41          1           0        1.086186   11.387825   -5.804726
     42          6           0       -0.869811   11.207701   -4.953317
     43          1           0       -0.561219   11.747895   -4.058846
     44          1           0       -1.543553   10.404790   -4.650931
     45          6           0       -1.640076   12.185666   -5.856946
     46          1           0       -1.956471   11.682885   -6.766260
     47          6           0       -2.894334   12.639601   -5.116575
     48          1           0       -3.457731   13.345400   -5.725931
     49          1           0       -2.623550   13.098053   -4.169838
     50          1           0       -3.517486   11.770217   -4.913888
     51          6           0       -0.806955   13.405617   -6.254316
     52          1           0       -1.427392   14.122080   -6.793395
     53          1           0       -0.386432   13.886709   -5.372499
     54          1           0        0.007314   13.095583   -6.907730
     55          6           0        1.095582    9.646136   -4.589810
     56          8           0        2.085101   10.040554   -3.976571
     57          7           0        0.645856    8.389889   -4.486868
     58          1           0       -0.194266    8.148403   -5.003977
     59          6           0        1.324829    7.329647   -3.717706
     60          1           0        1.449695    7.660845   -2.688923
     61          6           0        0.460137    6.050924   -3.707022
     62          1           0        0.196105    5.793511   -4.732727
     63          6           0        1.172064    4.845020   -3.084795
     64          1           0        2.095523    4.622460   -3.615348
     65          1           0        1.402743    5.052704   -2.043611
     66          1           0        0.528868    3.967271   -3.145979
     67          6           0       -0.833098    6.271561   -2.910552
     68          1           0       -1.470456    5.394219   -2.999517
     69          1           0       -1.385735    7.126883   -3.296415
     70          1           0       -0.607802    6.446258   -1.858061
     71          6           0        2.729857    7.055020   -4.270379
     72          8           0        3.696363    6.990200   -3.507586
     73          7           0        2.859155    6.948151   -5.593892
     74          1           0        2.018090    7.000777   -6.162396
     75          6           0        4.116684    6.669852   -6.293997
     76          1           0        4.519874    5.726051   -5.926190
     77          6           0        3.804622    6.523279   -7.789038
     78          1           0        3.035683    5.764966   -7.916727
     79          1           0        3.420458    7.463061   -8.181090
     80          6           0        5.030260    6.110510   -8.590615
     81          8           0        5.593952    5.029584   -8.305878
     82          8           0        5.443388    6.867787   -9.496494
     83          1           0        4.877829    7.434421   -6.140712
     84          1           0        4.990514    9.874324   -3.098437
     85          6           0        4.986637    9.959130   -2.011627
     86          1           0        4.485054    9.079331   -1.607591
     87          1           0        6.015028    9.958063   -1.653931
     88          1           0        4.483355   10.836541   -1.606780
     89          1           0       -2.766601   12.909418   -1.027684
     90          6           0       -3.327949   12.013521   -0.763441
     91          1           0       -3.860898   11.657271   -1.646322
     92          6           0       -2.388247   10.883287   -0.270740
     93          1           0       -1.748820   11.292566    0.513844
     94          6           0       -3.180743    9.702916    0.326782
     95          1           0       -3.903340    9.335287   -0.401454
     96          1           0       -3.704315   10.004264    1.233676
     97          1           0       -2.510792    8.888171    0.599632
     98          6           0       -1.491313   10.362339   -1.412963
     99          1           0       -2.065704    9.712505   -2.076318
    100          1           0       -1.139546   11.203617   -1.999985
    101          6           0       -0.251369    9.612835   -0.907843
    102          1           0        0.413920    9.419405   -1.746042
    103          1           0        0.283900   10.219336   -0.178256
    104          1           0       -0.533502    8.663482   -0.455969
    105          1           0       -4.075652   12.252502   -0.006870
    106          1           0       -9.134848   12.170033    0.527353
    107          6           0       -9.829152   11.811878    1.286899
    108          1           0      -10.484707   11.071098    0.834812
    109          6           0       -9.047676   11.119403    2.410889
    110          1           0       -8.190855   11.730792    2.699747
    111          1           0       -9.687690   11.028870    3.288610
    112          6           0       -8.587409    9.729865    2.025924
    113          6           0       -7.272958    9.495617    1.582235
    114          1           0       -6.563407   10.306590    1.536013
    115          6           0       -6.887404    8.201069    1.184472
    116          1           0       -5.885532    8.020423    0.830586
    117          6           0       -7.811805    7.136458    1.247550
    118          8           0       -7.445477    5.882806    0.886446
    119          1           0       -6.496697    5.743644    1.030141
    120          6           0       -9.122508    7.374417    1.700578
    121          1           0       -9.824825    6.559583    1.759674
    122          6           0       -9.507974    8.669947    2.077459
    123          1           0      -10.523074    8.851292    2.387646
    124          1           0      -10.471401   12.595841    1.688060
    125          1           0      -10.207658    4.050323    6.108624
    126          6           0       -9.535932    3.406126    5.541663
    127          1           0       -9.994124    3.192504    4.577448
    128          6           0       -8.176012    4.076585    5.245697
    129          1           0       -7.681866    4.313462    6.181849
    130          6           0       -7.257345    3.144876    4.444136
    131          1           0       -6.338960    3.666967    4.170800
    132          1           0       -6.977973    2.279239    5.045306
    133          1           0       -7.760906    2.805433    3.539995
    134          6           0       -8.330718    5.382313    4.458678
    135          1           0       -8.892681    6.108935    5.042429
    136          1           0       -7.350521    5.804724    4.234740
    137          1           0       -8.860195    5.191463    3.528375
    138          6           0       -9.356283    2.075552    6.266751
    139          8           0       -8.957629    2.045667    7.429928
    140          7           0       -9.657778    0.980113    5.571895
    141          1           0       -9.993919    1.107352    4.623605
    142          6           0       -9.479127   -0.403596    6.021411
    143          1           0       -9.252034   -0.432201    7.088435
    144          6           0      -10.776095   -1.198127    5.787938
    145          1           0      -11.061635   -1.101778    4.740904
    146          1           0      -10.584808   -2.249656    5.990698
    147          6           0      -11.944250   -0.725398    6.663742
    148          1           0      -12.035285    0.359778    6.587404
    149          1           0      -11.738808   -0.980406    7.706807
    150          6           0      -13.267556   -1.352398    6.216932
    151          8           0      -14.009108   -0.708352    5.438128
    152          8           0      -13.582884   -2.495754    6.611651
    153          6           0       -8.300768   -1.033602    5.265064
    154          8           0       -8.466886   -1.533977    4.149467
    155          7           0       -7.107768   -0.979404    5.862340
    156          1           0       -7.029675   -0.531397    6.761515
    157          6           0       -5.855665   -1.429760    5.245109
    158          1           0       -6.097742   -2.058707    4.393914
    159          6           0       -5.102727   -0.220833    4.665717
    160          1           0       -4.910141    0.497133    5.465627
    161          1           0       -5.731815    0.265213    3.918169
    162          6           0       -3.774741   -0.614670    4.007884
    163          8           0       -3.622369   -1.790273    3.608032
    164          8           0       -2.889491    0.259717    3.922810
    165          6           0       -4.957556   -2.220755    6.229283
    166          8           0       -4.573459   -1.674221    7.270960
    167          7           0       -4.602162   -3.485154    5.914751
    168          6           0       -3.499102   -4.199611    6.531138
    169          1           0       -2.574052   -3.895406    6.044096
    170          1           0       -3.428319   -4.003620    7.599163
    171          6           0       -3.756533   -5.681131    6.266554
    172          1           0       -2.823747   -6.236033    6.175886
    173          1           0       -4.372610   -6.098674    7.061037
    174          6           0       -4.541487   -5.682702    4.954881
    175          1           0       -5.229404   -6.525519    4.905687
    176          1           0       -3.851555   -5.730210    4.117233
    177          6           0       -5.283564   -4.341913    4.939410
    178          1           0       -5.205108   -3.913288    3.939802
    179          6           0       -6.762064   -4.540984    5.299435
    180          8           0       -7.140035   -4.532069    6.472094
    181          7           0       -7.613421   -4.800397    4.306129
    182          1           0       -7.280534   -4.733647    3.349184
    183          6           0       -9.011650   -5.144782    4.561242
    184          1           0       -9.465478   -4.304697    5.091305
    185          6           0       -9.779411   -5.334838    3.247000
    186          1           0       -9.315180   -6.132018    2.665937
    187          1           0       -9.717177   -4.415104    2.661255
    188          6           0      -11.239139   -5.667598    3.486406
    189          6           0      -12.131167   -4.648646    3.869796
    190          1           0      -11.785162   -3.629359    3.966273
    191          6           0      -13.463693   -4.961616    4.186189
    192          1           0      -14.133270   -4.184352    4.527297
    193          6           0      -13.913330   -6.288880    4.116405
    194          1           0      -14.932215   -6.530869    4.386979
    195          6           0      -13.026395   -7.308019    3.737917
    196          1           0      -13.383076   -8.323558    3.719631
    197          6           0      -11.687814   -7.002270    3.429782
    198          1           0      -10.996526   -7.787297    3.160905
    199          1           0       -9.077154   -6.019397    5.208335
    200          1           0       -0.987117    7.230578    8.961069
    201          6           0       -0.903013    6.230552    8.535331
    202          1           0       -0.379442    5.588551    9.244450
    203          6           0       -2.316679    5.668204    8.349596
    204          1           0       -2.871741    6.304340    7.660375
    205          1           0       -2.830649    5.702151    9.311572
    206          6           0       -2.363088    4.245242    7.837280
    207          6           0       -2.476062    3.172613    8.743090
    208          1           0       -2.522365    3.360919    9.805473
    209          6           0       -2.541065    1.850282    8.266892
    210          1           0       -2.649298    1.024196    8.956508
    211          6           0       -2.479671    1.601147    6.885590
    212          1           0       -2.544644    0.587874    6.508888
    213          6           0       -2.360824    2.670924    5.982305
    214          1           0       -2.330911    2.475302    4.917306
    215          6           0       -2.314165    3.992603    6.453701
    216          1           0       -2.251214    4.805719    5.743076
    217          6           0       -0.100216    6.214760    7.222954
    218          8           0        0.850499    5.436011    7.105885
    219          7           0       -0.411285    7.093901    6.261580
    220          1           0       -1.223530    7.694184    6.383718
    221          6           0        0.353748    7.180657    5.008319
    222          1           0        0.438926    6.175418    4.590434
    223          6           0       -0.364603    8.057514    3.975064
    224          1           0       -0.684541    8.988208    4.446115
    225          1           0        0.341468    8.315749    3.185389
    226          6           0       -1.540568    7.375828    3.304714
    227          6           0       -2.846090    7.870364    3.479764
    228          1           0       -3.016549    8.737570    4.098974
    229          6           0       -3.927161    7.235586    2.842860
    230          1           0       -4.931127    7.601173    2.961725
    231          6           0       -3.707415    6.111879    2.025212
    232          8           0       -4.755002    5.536616    1.385167
    233          1           0       -4.431058    5.063222    0.596250
    234          6           0       -2.399661    5.619354    1.840114
    235          1           0       -2.230695    4.751661    1.217091
    236          6           0       -1.319322    6.251304    2.481862
    237          1           0       -0.319828    5.859432    2.344501
    238          6           0        1.787613    7.676911    5.222924
    239          8           0        2.693550    7.198564    4.541241
    240          7           0        2.036212    8.567568    6.197323
    241          1           0        1.248070    8.974926    6.693510
    242          6           0        3.406976    8.957821    6.580804
    243          1           0        3.925723    9.361364    5.708965
    244          6           0        3.385468   10.019756    7.686256
    245          1           0        2.689940    9.697826    8.462634
    246          1           0        4.377500   10.085767    8.134593
    247          6           0        3.001515   11.416010    7.176749
    248          1           0        3.828088   11.851563    6.613629
    249          1           0        2.129521   11.340124    6.531863
    250          6           0        2.667609   12.289983    8.387078
    251          1           0        1.975847   11.718456    9.003464
    252          1           0        3.566793   12.457464    8.973938
    253          7           0        2.054513   13.586192    8.031470
    254          1           0        2.441072   14.100585    7.258059
    255          6           0        1.039226   14.129628    8.681802
    256          7           0        0.583836   13.604631    9.779646
    257          1           0        1.119839   12.876995   10.237533
    258          1           0       -0.224475   13.982611   10.252337
    259          7           0        0.432036   15.198973    8.257410
    260          1           0        0.827149   15.771600    7.526714
    261          1           0       -0.320985   15.575010    8.820705
    262          6           0        4.228925    7.758349    7.045042
    263          8           0        5.385844    7.651396    6.648582
    264          7           0        3.656629    6.851559    7.843752
    265          1           0        2.703768    7.009438    8.143853
    266          6           0        4.328757    5.603505    8.238029
    267          1           0        5.313400    5.841078    8.645031
    268          6           0        3.530415    4.865768    9.323418
    269          1           0        3.955596    3.869184    9.455659
    270          1           0        2.502447    4.744088    8.984134
    271          6           0        3.533035    5.565444   10.689212
    272          1           0        4.483254    5.387827   11.192145
    273          1           0        3.409507    6.640145   10.560572
    274          6           0        2.393852    5.036877   11.551318
    275          8           0        2.487585    3.990940   12.181060
    276          7           0        1.269555    5.709930   11.550769
    277          1           0        1.212337    6.563189   11.010578
    278          1           0        0.477371    5.370494   12.081057
    279          6           0        4.549213    4.669945    7.038548
    280          8           0        5.660313    4.176062    6.852703
    281          7           0        3.525600    4.456162    6.204414
    282          1           0        2.632357    4.886660    6.416686
    283          6           0        3.587670    3.532355    5.065163
    284          1           0        2.599895    3.465282    4.606114
    285          1           0        3.867298    2.540427    5.420083
    286          6           0        4.585777    3.971244    3.989877
    287          8           0        5.536810    3.249842    3.681744
    288          7           0        4.405451    5.183256    3.458047
    289          1           0        3.633557    5.739415    3.813179
    290          6           0        5.157853    5.738328    2.323501
    291          1           0        5.462284    4.915721    1.677883
    292          6           0        4.232452    6.668351    1.507190
    293          1           0        4.052855    7.571978    2.090960
    294          1           0        4.756070    6.960809    0.595186
    295          6           0        2.864779    6.077138    1.111730
    296          1           0        2.282674    5.867140    2.008546
    297          6           0        2.089340    7.087653    0.267605
    298          1           0        1.110506    6.677139    0.018142
    299          1           0        1.945603    8.006567    0.834334
    300          1           0        2.634719    7.307894   -0.650243
    301          6           0        3.009765    4.790405    0.304058
    302          1           0        3.561315    4.980796   -0.617898
    303          1           0        3.523894    4.034335    0.894799
    304          1           0        2.018590    4.404616    0.069642
    305          6           0        6.450074    6.476426    2.718179
    306          8           0        7.152564    6.984735    1.839445
    307          7           0        6.767570    6.578074    4.012769
    308          1           0        6.133251    6.166451    4.683276
    309          6           0        7.823946    7.453623    4.534658
    310          1           0        7.581447    8.488838    4.293178
    311          1           0        7.840465    7.361686    5.617980
    312          6           0        9.245758    7.164161    4.040261
    313          8           0       10.022975    8.102069    3.870275
    314          7           0        9.581849    5.908427    3.724571
    315          1           0        8.889624    5.176348    3.842580
    316          6           0       10.951836    5.483907    3.397827
    317          1           0       10.960330    4.399428    3.287895
    318          1           0       11.604031    5.739379    4.233272
    319          6           0       11.566822    6.082434    2.124239
    320          8           0       12.754123    5.878088    1.878632
    321          7           0       10.798620    6.816916    1.309159
    322          1           0        9.835613    6.967904    1.573982
    323          6           0       11.283083    7.454973    0.076104
    324          1           0       10.500994    8.111225   -0.307014
    325          1           0       12.162736    8.058838    0.303739
    326          6           0       11.649649    6.456188   -1.028759
    327          8           0       12.490740    6.755764   -1.876311
    328          7           0       11.058686    5.257798   -0.990974
    329          1           0       10.338501    5.156846   -0.287489
    330          6           0       11.375880    4.085316   -1.828993
    331          1           0       11.834918    4.415431   -2.760137
    332          6           0       12.361626    3.173238   -1.068237
    333          1           0       12.014656    3.061599   -0.039712
    334          1           0       12.356771    2.176687   -1.513628
    335          6           0       13.822361    3.653211   -1.039906
    336          1           0       14.357851    2.983952   -0.365542
    337          1           0       13.889956    4.657802   -0.622464
    338          6           0       14.533089    3.586867   -2.403943
    339          1           0       14.050033    2.844200   -3.040824
    340          1           0       15.552917    3.249574   -2.222339
    341          6           0       14.589876    4.939808   -3.128183
    342          1           0       14.997401    5.688473   -2.443878
    343          1           0       13.577046    5.249711   -3.398206
    344          7           0       15.434103    4.863083   -4.343546
    345          1           0       15.487682    5.758108   -4.817038
    346          1           0       15.054908    4.184129   -5.003524
    347          1           0       16.377385    4.580083   -4.097212
    348          6           0       10.144802    3.279411   -2.262281
    349          8           0       10.297790    2.339406   -3.034788
    350          7           0        8.946009    3.624344   -1.783590
    351          1           0        8.869493    4.469442   -1.231640
    352          6           0        7.693650    2.989646   -2.217582
    353          1           0        7.864132    1.918725   -2.299281
    354          6           0        6.551683    3.200481   -1.204188
    355          1           0        6.320898    4.262169   -1.132850
    356          6           0        5.282170    2.465425   -1.650636
    357          1           0        4.918819    2.864197   -2.597281
    358          1           0        5.479769    1.397329   -1.753017
    359          1           0        4.502405    2.615057   -0.908124
    360          6           0        6.926970    2.702351    0.199012
    361          1           0        7.176199    1.642950    0.168948
    362          1           0        7.775545    3.264227    0.588182
    363          1           0        6.086670    2.842787    0.877479
    364          6           0        7.304796    3.530281   -3.593889
    365          8           0        7.194588    4.745730   -3.768819
    366          7           0        7.077861    2.642757   -4.564841
    367          1           0        7.261461    1.664554   -4.348512
    368          6           0        6.700300    2.986393   -5.947926
    369          1           0        6.469874    4.050661   -6.018697
    370          6           0        7.878566    2.675735   -6.892735
    371          1           0        7.586745    2.908488   -7.917240
    372          1           0        8.092833    1.607236   -6.844212
    373          6           0        9.174220    3.441982   -6.556246
    374          1           0        9.982994    3.056713   -7.179268
    375          1           0        9.452777    3.253332   -5.520383
    376          6           0        9.062254    4.957885   -6.770733
    377          1           0        8.145470    5.330856   -6.312382
    378          1           0        9.902213    5.440239   -6.269926
    379          7           0        9.104076    5.290529   -8.205109
    380          1           0        9.568992    4.642553   -8.822826
    381          6           0        8.536635    6.312140   -8.811550
[...]
 ,0,35.909,47.832,37.091\H,0,35.159,47.213,36.594\C,0,36.438,47.044,38.
 296\H,0,37.231,47.612,38.783\H,0,36.868,46.103,37.946\C,0,35.343,46.74
 1,39.3\C,0,34.414,45.719,39.029\H,0,34.496,45.134,38.124\C,0,33.34,45.
 493,39.906\H,0,32.601,44.74,39.67\C,0,33.191,46.28,41.058\H,0,32.348,4
 6.122,41.717\C,0,34.113,47.302,41.33\H,0,33.964,47.914,42.203\C,0,35.1
 85,47.54,40.45\H,0,35.883,48.341,40.644\H,0,35.427,48.764,37.386\H,0,3
 6.873,43.909,22.239\C,0,37.317,44.529,23.018\H,0,37.149,45.578,22.772\
 C,0,36.592,44.235,24.336\H,0,36.725,43.185,24.596\H,0,35.524,44.402,24
 .187\C,0,37.046,45.083,25.504\C,0,36.348,46.261,25.834\H,0,35.492,46.5
 67,25.251\C,0,36.756,47.039,26.933\H,0,36.211,47.933,27.204\C,0,37.87,
 46.645,27.693\H,0,38.182,47.229,28.55\C,0,38.57,45.473,27.36\H,0,39.41
 8,45.164,27.959\C,0,38.154,44.685,26.275\H,0,38.687,43.771,26.05\C,0,3
 8.837,44.324,23.139\O,0,39.584,45.306,23.098\N,0,39.319,43.077,23.22\H
 ,0,38.668,42.298,23.286\C,0,40.763,42.802,23.272\H,0,41.202,43.43,24.0
 5\C,0,41.04,41.339,23.64\H,0,40.415,40.685,23.03\H,0,42.08,41.111,23.4
 05\C,0,40.846,41.03,25.111\C,0,39.846,40.131,25.525\H,0,39.207,39.66,2
 4.794\C,0,39.684,39.844,26.892\H,0,38.928,39.157,27.227\C,0,40.523,40.
 447,27.847\O,0,40.381,40.128,29.157\H,0,41.223,40.29,29.622\C,0,41.532
 ,41.341,27.435\H,0,42.173,41.81,28.169\C,0,41.69,41.632,26.068\H,0,42.
 459,42.329,25.761\C,0,41.483,43.169,21.97\O,0,42.615,43.648,22.028\N,0
 ,40.838,43.029,20.8\H,0,39.928,42.576,20.8\C,0,41.395,43.524,19.526\H,
 0,42.369,43.062,19.353\C,0,40.466,43.187,18.354\H,0,39.447,43.463,18.6
 29\H,0,40.752,43.788,17.49\C,0,40.522,41.709,17.943\H,0,41.454,41.5,17
 .416\H,0,40.464,41.083,18.83\C,0,39.325,41.421,17.035\H,0,38.447,41.82
 ,17.54\H,0,39.439,41.963,16.1\N,0,39.123,39.984,16.758\H,0,39.93,39.42
 ,16.551\C,0,37.941,39.391,16.741\N,0,36.842,40.076,16.847\H,0,36.88,41
 .085,16.764\H,0,35.939,39.626,16.889\N,0,37.81,38.101,16.636\H,0,38.58
 6,37.515,16.367\H,0,36.873,37.718,16.603\C,0,41.641,45.03,19.562\O,0,4
 2.691,45.464,19.097\N,0,40.721,45.823,20.121\H,0,39.872,45.4,20.472\C,
 0,40.928,47.267,20.313\H,0,41.23,47.714,19.364\C,0,39.633,47.954,20.77
 2\H,0,39.867,48.975,21.079\H,0,39.244,47.428,21.643\C,0,38.543,48.023,
 19.694\H,0,38.776,48.817,18.985\H,0,38.494,47.081,19.149\C,0,37.188,48
 .294,20.335\O,0,36.832,49.423,20.648\N,0,36.427,47.262,20.605\H,0,36.7
 5,46.338,20.35\H,0,35.536,47.398,21.065\C,0,42.048,47.554,21.324\O,0,4
 2.932,48.359,21.035\N,0,42.047,46.881,22.48\H,0,41.286,46.236,22.662\C
 ,0,43.019,47.115,23.555\H,0,42.744,46.512,24.422\H,0,42.989,48.165,23.
 846\C,0,44.453,46.754,23.157\O,0,45.343,47.607,23.168\N,0,44.668,45.50
 1,22.747\H,0,43.867,44.878,22.708\C,0,45.983,44.912,22.455\H,0,46.725,
 45.398,23.087\C,0,45.958,43.41,22.817\H,0,45.338,42.891,22.085\H,0,46.
 973,43.018,22.73\C,0,45.425,43.066,24.222\H,0,44.379,43.361,24.3\C,0,4
 5.512,41.558,24.453\H,0,45.104,41.317,25.435\H,0,44.927,41.036,23.697\
 H,0,46.55,41.229,24.401\C,0,46.219,43.765,25.322\H,0,47.266,43.46,25.2
 87\H,0,46.143,44.845,25.209\H,0,45.79,43.506,26.289\C,0,46.459,45.108,
 21.004\O,0,47.549,44.646,20.654\N,0,45.663,45.75,20.143\H,0,44.77,46.0
 76,20.486\C,0,45.882,45.789,18.692\H,0,45.846,44.773,18.298\H,0,45.068
 ,46.349,18.238\C,0,47.188,46.441,18.224\O,0,47.755,45.997,17.227\N,0,4
 7.725,47.422,18.958\H,0,47.239,47.723,19.796\C,0,48.878,48.229,18.53\H
 ,0,49.037,49.02,19.263\H,0,48.638,48.701,17.577\C,0,50.209,47.482,18.3
 6\O,0,51.169,48.072,17.868\N,0,50.296,46.203,18.748\H,0,49.468,45.765,
 19.126\C,0,51.51,45.384,18.615\H,0,51.262,44.351,18.861\H,0,51.859,45.
 421,17.582\C,0,52.655,45.83,19.533\O,0,53.823,45.606,19.215\N,0,52.325
 ,46.501,20.641\H,0,51.332,46.563,20.825\C,0,53.245,47.177,21.576\H,0,5
 4.231,46.718,21.514\C,0,53.35,48.668,21.191\H,0,52.347,49.053,21.\H,0,
 53.752,49.236,22.032\C,0,54.231,48.977,19.969\H,0,54.099,50.037,19.749
 \H,0,53.89,48.419,19.097\C,0,55.735,48.746,20.203\H,0,55.962,48.815,21
 .268\H,0,56.269,49.552,19.701\C,0,56.24,47.407,19.646\H,0,55.928,47.32
 ,18.602\H,0,55.78,46.586,20.202\N,0,57.716,47.311,19.735\H,0,58.056,46
 .435,19.354\H,0,58.023,47.368,20.706\H,0,58.148,48.069,19.216\C,0,52.8
 42,47.044,23.05\O,0,53.592,47.495,23.909\N,0,51.687,46.444,23.352\H,0,
 51.161,46.003,22.608\C,0,51.26,46.169,24.731\H,0,51.5,47.036,25.342\C,
 0,49.74,45.936,24.835\H,0,49.47,45.044,24.272\C,0,49.318,45.725,26.294
 \H,0,49.786,44.831,26.705\H,0,49.591,46.593,26.896\H,0,48.241,45.584,2
 6.338\C,0,48.936,47.115,24.268\H,0,49.186,48.032,24.799\H,0,49.144,47.
 242,23.206\H,0,47.87,46.925,24.385\C,0,52.032,44.963,25.267\O,0,52.018
 ,43.898,24.646\N,0,52.688,45.112,26.42\H,0,52.702,46.046,26.826\C,0,53
 .485,44.06,27.077\H,0,53.324,43.103,26.578\C,0,54.982,44.417,26.982\H,
 0,55.566,43.649,27.49\H,0,55.15,45.36,27.504\C,0,55.503,44.567,25.538\
 H,0,56.522,44.956,25.57\H,0,54.899,45.3,25.005\C,0,55.499,43.252,24.74
 6\H,0,54.538,42.75,24.865\H,0,55.621,43.486,23.688\N,0,56.604,42.377,2
 5.174\H,0,57.416,42.814,25.583\C,0,56.641,41.061,25.159\N,0,55.689,40.
 306,24.706\H,0,54.804,40.734,24.469\H,0,55.639,39.4,25.156\N,0,57.683,
 40.465,25.64\H,0,58.433,41.023,26.02\H,0,57.749,39.455,25.596\C,0,53.0
 27,43.883,28.522\O,0,52.898,44.871,29.241\N,0,52.796,42.65,28.968\H,0,
 53.105,41.876,28.387\C,0,52.152,42.334,30.246\H,0,52.042,43.253,30.817
 \C,0,50.739,41.811,29.969\H,0,50.205,41.672,30.91\H,0,50.786,40.857,29
 .442\H,0,50.195,42.532,29.36\C,0,52.971,41.356,31.107\O,0,53.471,40.34
 1,30.622\N,0,53.08,41.633,32.408\H,0,52.662,42.487,32.767\C,0,53.824,4
 0.797,33.354\H,0,53.816,39.769,32.995\C,0,55.294,41.253,33.406\H,0,55.
 754,41.096,32.429\H,0,55.832,40.644,34.136\S,0,55.457,43.006,33.868\H,
 0,56.766,42.961,34.171\H,0,53.364,40.786,34.342\H,0,45.385,38.478,40.4
 66\C,0,46.435,38.561,40.187\H,0,47.024,38.055,40.946\C,0,46.705,37.799
 ,38.884\H,0,46.376,36.769,39.019\H,0,47.78,37.788,38.71\C,0,46.02,38.3
 64,37.635\H,0,46.423,39.347,37.394\H,0,44.953,38.463,37.834\S,0,46.25,
 37.274,36.209\C,0,44.772,37.648,35.233\H,0,43.886,37.601,35.864\H,0,44
 .861,38.641,34.791\H,0,44.672,36.907,34.441\H,0,46.78,39.593,40.13\H,0
 ,49.621,42.621,38.075\C,0,50.213,42.685,37.162\H,0,51.215,42.308,37.36
 5\C,0,49.593,41.772,36.084\H,0,50.313,41.628,35.284\H,0,49.42,40.787,3
 6.515\C,0,48.301,42.242,35.45\C,0,48.285,42.673,34.108\H,0,49.202,42.7
 2,33.537\C,0,47.066,43.002,33.489\H,0,47.032,43.304,32.451\C,0,45.872,
 42.938,34.22\H,0,44.937,43.216,33.756\C,0,45.894,42.535,35.564\H,0,44.
 977,42.519,36.121\C,0,47.1,42.17,36.176\H,0,47.099,41.837,37.202\C,0,5
 0.404,44.13,36.699\O,0,49.799,45.068,37.233\N,0,51.275,44.291,35.706\H
 ,0,51.765,43.461,35.376\C,0,51.54,45.542,34.998\H,0,50.791,46.282,35.2
 8\C,0,52.922,46.07,35.412\H,0,52.877,46.355,36.464\H,0,53.658,45.271,3
 5.304\C,0,53.388,47.272,34.574\H,0,53.564,46.945,33.55\H,0,52.619,48.0
 47,34.567\C,0,54.694,47.854,35.116\H,0,55.121,48.504,34.35\H,0,55.402,
 47.047,35.314\N,0,54.455,48.633,36.34\H,0,53.565,48.512,36.823\C,0,55.
 24,49.549,36.863\N,0,56.443,49.784,36.425\H,0,56.831,49.205,35.69\H,0,
 57.016,50.495,36.87\N,0,54.806,50.241,37.868\H,0,53.856,50.074,38.193\
 H,0,55.352,50.982,38.263\C,0,51.422,45.318,33.496\O,0,51.931,44.324,32
 .973\N,0,50.802,46.275,32.814\H,0,50.415,47.054,33.34\C,0,50.84,46.417
 ,31.354\H,0,51.355,45.556,30.939\C,0,49.432,46.423,30.726\H,0,49.542,4
 6.494,29.643\C,0,48.708,45.113,31.041\H,0,48.515,45.046,32.111\H,0,49.
 314,44.266,30.727\H,0,47.754,45.081,30.516\C,0,48.552,47.583,31.195\H,
 0,48.427,47.558,32.277\H,0,47.57,47.511,30.729\H,0,49.006,48.526,30.9\
 C,0,51.663,47.65,30.978\O,0,51.706,48.628,31.721\N,0,52.354,47.596,29.
 846\H,0,52.337,46.731,29.317\C,0,53.236,48.657,29.347\H,0,53.03,49.583
 ,29.882\C,0,54.71,48.293,29.58\H,0,55.324,49.122,29.225\H,0,54.962,47.
 403,29.001\C,0,55.033,48.039,31.06\H,0,54.59,47.091,31.373\H,0,54.6,48
 .839,31.662\C,0,56.541,47.986,31.301\O,0,57.26,47.259,30.579\O,0,57.04
 1,48.683,32.215\C,0,52.966,48.91,27.863\O,0,52.826,47.956,27.096\N,0,5
 2.855,50.184,27.472\H,0,53.088,50.911,28.143\C,0,52.401,50.618,26.143\
 H,0,52.944,50.043,25.391\C,0,50.895,50.288,25.98\H,0,50.758,49.21,26.0
 51\H,0,50.59,50.561,24.97\C,0,49.929,50.957,26.971\H,0,50.274,51.96,27
 .212\H,0,48.966,51.057,26.471\S,0,49.632,50.019,28.497\C,0,50.311,51.1
 32,29.752\H,0,51.351,51.355,29.525\H,0,49.734,52.057,29.775\H,0,50.253
 ,50.651,30.727\C,0,52.738,52.109,25.901\O,0,53.746,52.61,26.404\N,0,51
 .929,52.823,25.104\H,0,51.105,52.371,24.737\C,0,52.113,54.245,24.763\H
 ,0,52.889,54.659,25.406\C,0,52.586,54.407,23.3\H,0,51.81,54.021,22.638
 \C,0,52.848,55.872,22.927\H,0,53.665,56.262,23.528\H,0,53.131,55.94,21
 .877\H,0,51.955,56.476,23.077\C,0,53.885,53.635,23.02\H,0,54.664,53.95
 8,23.71\H,0,53.718,52.565,23.141\H,0,54.207,53.814,21.993\C,0,50.823,5
 5.037,25.024\O,0,49.751,54.662,24.544\N,0,50.936,56.159,25.737\H,0,51.
 87,56.41,26.053\C,0,49.863,57.09,26.119\H,0,48.942,56.846,25.588\C,0,4
 9.61,56.974,27.63\H,0,49.044,56.062,27.825\H,0,50.574,56.887,28.132\C,
 0,48.898,58.132,28.26\C,0,49.49,59.094,29.004\H,0,50.548,59.123,29.24\
 N,0,48.553,60.036,29.381\H,0,48.772,60.846,29.944\C,0,47.307,59.742,28
 .868\C,0,46.07,60.399,28.925\H,0,45.971,61.334,29.458\C,0,44.969,59.83
 4,28.259\H,0,44.011,60.334,28.267\C,0,45.119,58.621,27.562\H,0,44.272,
 58.188,27.05\C,0,46.367,57.974,27.506\H,0,46.471,57.054,26.949\C,0,47.
 494,58.518,28.156\H,0,50.144,58.113,25.868\H,0,54.375,54.486,28.881\C,
 0,53.834,54.416,29.825\H,0,54.389,54.974,30.579\C,0,52.461,55.088,29.6
 58\H,0,51.964,55.136,30.628\H,0,52.601,56.105,29.287\S,0,51.418,54.152
 ,28.506\H,0,50.288,54.833,28.725\C,0,53.703,52.978,30.358\O,0,53.891,5
 1.99,29.643\N,0,53.339,52.887,31.635\H,0,53.173,53.755,32.137\C,0,53.0
 15,51.669,32.365\H,0,52.853,50.857,31.659\C,0,54.194,51.296,33.27\H,0,
 54.388,52.102,33.979\H,0,55.085,51.116,32.667\H,0,53.947,50.394,33.826
 \C,0,51.718,51.865,33.166\O,0,51.376,52.986,33.545\N,0,50.992,50.779,3
 3.414\H,0,51.306,49.895,33.027\C,0,49.755,50.767,34.187\H,0,49.737,51.
 638,34.84\C,0,48.566,50.866,33.214\H,0,48.674,50.074,32.479\H,0,48.615
 ,51.819,32.686\C,0,47.18,50.72,33.865\H,0,47.159,49.828,34.485\C,0,46.
 834,51.925,34.736\H,0,47.556,52.006,35.543\H,0,46.843,52.838,34.142\H,
 0,45.848,51.784,35.174\C,0,46.119,50.57,32.779\H,0,46.347,49.703,32.15
 8\H,0,46.078,51.465,32.161\H,0,45.147,50.4,33.239\C,0,49.718,49.514,35
 .066\O,0,49.799,48.389,34.571\N,0,49.597,49.711,36.375\H,0,49.544,50.6
 65,36.709\C,0,49.451,48.628,37.347\H,0,50.,47.755,36.99\C,0,50.081,49.
 049,38.681\H,0,49.527,49.893,39.089\H,0,50.002,48.225,39.384\C,0,51.55
 9,49.415,38.548\O,0,52.376,48.515,38.242\O,0,51.932,50.588,38.79\C,0,4
 7.973,48.234,37.513\O,0,47.147,49.049,37.917\N,0,47.637,46.962,37.278\
 H,0,48.369,46.327,36.969\C,0,46.253,46.438,37.253\H,0,45.57,47.208,37.
 613\C,0,45.827,46.098,35.801\H,0,46.436,45.264,35.46\C,0,44.344,45.709
 ,35.69\H,0,44.074,45.573,34.641\H,0,44.148,44.766,36.193\H,0,43.717,46
 .489,36.117\C,0,46.063,47.258,34.825\H,0,45.698,46.991,33.831\H,0,47.1
 28,47.466,34.738\H,0,45.54,48.15,35.165\C,0,46.114,45.222,38.183\O,0,4
 7.102,44.537,38.464\N,0,44.908,44.962,38.701\H,0,44.151,45.607,38.487\
 C,0,44.549,43.701,39.371\H,0,45.358,42.993,39.217\C,0,44.366,43.87,40.
 902\H,0,43.757,44.757,41.08\C,0,43.655,42.654,41.536\H,0,43.596,42.761
 ,42.617\H,0,42.631,42.576,41.17\H,0,44.193,41.736,41.298\C,0,45.736,44
 .056,41.586\H,0,46.326,44.763,41.011\H,0,46.265,43.104,41.595\C,0,45.6
 66,44.59,43.019\H,0,45.093,45.516,43.043\H,0,46.679,44.79,43.359\H,0,4
 5.214,43.859,43.688\C,0,43.308,43.115,38.7\O,0,42.228,43.695,38.78\N,0
 ,43.45,41.947,38.075\H,0,44.355,41.497,38.107\C,0,42.317,41.201,37.522
 \H,0,41.51,41.891,37.276\C,0,42.698,40.456,36.238\H,0,43.649,39.949,36
 .386\H,0,41.941,39.702,36.023\C,0,42.804,41.346,35.01\O,0,42.619,42.55
 5,35.005\O,0,43.149,40.655,33.906\H,0,43.253,41.284,33.145\C,0,41.8,40
 .203,38.552\O,0,42.587,39.456,39.139\N,0,40.479,40.151,38.715\H,0,39.9
 23,40.858,38.239\C,0,39.76,39.18,39.55\H,0,40.473,38.52,40.041\C,0,38.
 954,39.903,40.645\H,0,38.204,40.535,40.174\C,0,38.235,38.908,41.556\H,
 0,37.683,39.455,42.32\H,0,38.961,38.249,42.033\H,0,37.525,38.311,40.98
 6\C,0,39.841,40.798,41.521\H,0,40.319,41.567,40.915\H,0,40.606,40.202,
 42.016\H,0,39.228,41.298,42.268\C,0,38.854,38.334,38.655\O,0,38.025,38
 .884,37.93\N,0,39.001,37.009,38.682\H,0,39.638,36.614,39.369\C,0,38.33
 1,36.071,37.764\H,0,37.627,36.609,37.132\C,0,39.372,35.395,36.851\H,0,
 38.897,34.572,36.315\H,0,40.17,34.978,37.468\C,0,39.98,36.344,35.815\H
 ,0,40.365,37.231,36.319\H,0,39.191,36.646,35.126\S,0,41.332,35.602,34.
 859\C,0,41.641,36.911,33.641\H,0,41.86,37.853,34.145\H,0,42.493,36.633
 ,33.022\H,0,40.769,37.033,32.999\H,0,37.775,35.302,38.3\H,0,36.982,31.
 484,32.159\C,0,36.768,32.394,32.719\H,0,36.875,32.185,33.784\C,0,37.75
 2,33.532,32.352\H,0,37.587,33.794,31.309\C,0,37.45,34.768,33.215\H,0,3
 6.452,35.15,33.002\H,0,38.164,35.563,33.003\H,0,37.513,34.513,34.274\C
 ,0,39.242,33.147,32.504\H,0,39.399,32.115,32.196\H,0,39.541,33.238,33.
 549\C,0,40.164,34.01,31.63\H,0,39.895,33.894,30.579\H,0,40.081,35.06,3
 1.902\H,0,41.198,33.691,31.769\H,0,35.735,32.679,32.517\H,0,35.576,38.
 527,34.714\C,0,36.5,39.053,34.953\H,0,36.935,38.556,35.815\C,0,37.518,
 38.931,33.805\H,0,37.551,37.886,33.502\H,0,37.198,39.529,32.954\C,0,38
 .947,39.326,34.209\H,0,39.134,38.961,35.218\H,0,39.634,38.809,33.542\S
 ,0,39.386,41.083,34.159\C,0,39.951,41.256,32.443\H,0,39.148,40.989,31.
 758\H,0,40.806,40.602,32.271\H,0,40.254,42.288,32.259\C,0,36.239,40.51
 2,35.352\O,0,35.324,41.154,34.83\N,0,37.026,41.031,36.295\H,0,37.721,4
 0.421,36.709\C,0,36.95,42.397,36.82\H,0,36.355,43.017,36.15\C,0,36.27,
 42.371,38.203\H,0,36.867,41.767,38.884\H,0,36.221,43.388,38.594\C,0,34
 .853,41.787,38.14\H,0,34.268,42.397,37.458\H,0,34.879,40.77,37.753\C,0
 ,34.149,41.72,39.485\O,0,34.688,41.294,40.502\N,0,32.889,42.071,39.527
 \H,0,32.421,42.353,38.663\H,0,32.375,41.963,40.381\C,0,38.359,42.999,3
 6.906\O,0,39.171,42.536,37.711\N,0,38.653,44.005,36.077\H,0,37.931,44.
 342,35.446\C,0,39.963,44.652,35.992\H,0,40.732,43.971,36.361\C,0,40.27
 6,44.933,34.52\H,0,41.264,45.386,34.429\H,0,39.536,45.614,34.105\H,0,4
 0.269,44.005,33.95\C,0,39.998,45.925,36.853\O,0,39.557,47.,36.442\N,0,
 40.506,45.818,38.078\H,0,40.902,44.926,38.356\C,0,40.667,46.954,38.984
 \H,0,39.77,47.572,38.938\C,0,40.814,46.455,40.431\H,0,41.113,47.294,41
 .06\H,0,41.609,45.71,40.482\C,0,39.534,45.863,40.993\C,0,39.171,44.533
 ,40.7\H,0,39.827,43.911,40.103\C,0,37.929,44.028,41.13\H,0,37.627,43.0
 25,40.87\C,0,37.048,44.854,41.857\O,0,35.805,44.41,42.18\H,0,35.144,45
 .077,41.953\C,0,37.433,46.168,42.196\H,0,36.76,46.788,42.764\C,0,38.67
 1,46.674,41.757\H,0,38.946,47.695,41.976\C,0,41.86,47.813,38.543\O,0,4
 3.009,47.382,38.659\N,0,41.569,49.027,38.061\H,0,40.588,49.237,37.928\
 C,0,42.518,50.112,37.763\H,0,43.176,50.247,38.624\C,0,43.395,49.75,36.
 549\H,0,44.203,50.48,36.491\H,0,43.875,48.79,36.725\C,0,42.722,49.712,
 35.206\C,0,42.07,48.65,34.682\H,0,41.948,47.688,35.161\N,0,41.58,48.96
 8,33.432\H,0,41.038,48.31,32.853\C,0,41.877,50.265,33.085\C,0,41.597,5
 1.04,31.95\H,0,41.059,50.6,31.122\C,0,42.033,52.375,31.906\H,0,41.825,
 52.982,31.037\C,0,42.755,52.909,32.988\H,0,43.11,53.929,32.943\C,0,43.
 043,52.115,34.117\H,0,43.634,52.52,34.921\C,0,42.598,50.776,34.205\C,0
 ,41.799,51.451,37.492\O,0,40.609,51.497,37.15\N,0,42.542,52.553,37.596
 \H,0,43.493,52.461,37.934\C,0,42.195,53.859,37.015\H,0,41.71,53.702,36
 .051\C,0,41.211,54.624,37.91\H,0,40.352,53.993,38.134\H,0,40.855,55.50
 4,37.379\O,0,41.814,55.033,39.115\H,0,41.637,54.316,39.757\C,0,43.469,
 54.676,36.758\O,0,44.582,54.191,36.963\N,0,43.333,55.921,36.304\H,0,42
 .394,56.286,36.159\C,0,44.451,56.821,35.991\H,0,45.079,56.318,35.255\C
 ,0,43.896,58.093,35.328\H,0,44.749,58.656,34.944\H,0,43.287,57.815,34.
 467\C,0,43.09,59.04,36.238\H,0,42.967,59.973,35.692\H,0,43.669,59.265,
 37.136\C,0,41.682,58.572,36.634\O,0,41.122,57.608,36.061\O,0,41.075,59
 .204,37.523\H,0,45.105,57.052,36.832\H,0,47.132,54.522,38.635\C,0,47.8
 6,53.724,38.486\H,0,48.551,53.752,39.323\C,0,47.12,52.37,38.531\H,0,46
 .381,52.322,37.733\H,0,47.84,51.569,38.373\C,0,46.423,52.107,39.856\O,
 0,45.201,52.051,39.949\N,0,47.185,51.967,40.919\H,0,48.196,52.023,40.8
 16\H,0,46.754,51.898,41.834\C,0,48.741,53.883,37.223\O,0,49.581,53.022
 ,36.947\N,0,48.542,54.953,36.44\H,0,47.88,55.647,36.758\C,0,49.23,55.2
 2,35.169\H,0,49.461,54.269,34.687\C,0,48.24,55.987,34.264\H,0,47.9,56.
 867,34.811\H,0,47.372,55.352,34.086\C,0,48.788,56.471,32.906\H,0,49.63
 8,57.133,33.064\C,0,49.22,55.323,31.995\H,0,48.408,54.605,31.879\H,0,4
 9.505,55.713,31.019\H,0,50.085,54.823,32.427\C,0,47.701,57.263,32.176\
 H,0,46.84,56.625,31.979\H,0,47.392,58.109,32.789\H,0,48.092,57.64,31.2
 31\H,0,50.165,55.761,35.314\O,0,41.946,46.503,28.614\H,0,42.547,46.778
 ,29.338\H,0,41.123,46.351,29.175\O,0,44.439,51.076,24.402\H,0,44.559,5
 0.253,23.905\H,0,45.206,51.033,25.018\O,0,43.129,44.745,26.957\H,0,42.
 587,45.436,27.421\H,0,43.577,44.354,27.727\O,0,42.611,54.716,27.047\H,
 0,43.569,54.746,27.188\H,0,42.558,54.075,26.298\O,0,42.526,52.853,25.0
 46\H,0,43.213,52.144,24.902\H,0,42.457,53.158,24.103\O,0,40.771,51.72,
 27.021\H,0,41.438,52.043,26.391\H,0,40.665,52.497,27.604\O,0,40.289,53
 .983,28.559\H,0,41.182,54.363,28.46\H,0,40.083,54.252,29.484\O,0,46.86
 5,48.965,21.389\H,0,46.377,48.488,22.098\H,0,46.108,49.421,20.949\O,0,
 48.589,51.064,21.765\H,0,48.073,50.256,21.533\H,0,48.232,51.257,22.644
 \O,0,38.437,50.458,27.216\H,0,38.552,49.836,27.957\H,0,39.367,50.802,2
 7.143\O,0,38.964,47.543,24.629\H,0,38.881,47.127,25.508\H,0,39.291,46.
 79,24.1\O,0,39.816,54.07,25.016\H,0,40.525,53.455,24.771\H,0,39.288,54
 .094,24.189\O,0,44.731,50.047,20.114\H,0,44.655,49.858,19.146\H,0,44.0
 2,49.443,20.444\O,0,40.577,56.529,26.929\H,0,41.026,57.345,26.613\H,0,
 41.351,55.915,26.933\O,0,42.199,53.537,22.443\H,0,42.771,53.101,21.763
 \H,0,41.316,53.239,22.104\O,0,37.432,49.759,24.821\H,0,37.95,48.92,24.
 68\H,0,37.809,50.005,25.705\O,0,39.609,55.179,30.943\H,0,39.825,56.107
 ,30.69\H,0,38.658,55.29,31.171\O,0,50.074,44.731,21.607\H,0,49.135,44.
 67,21.336\H,0,50.134,43.922,22.174\O,0,43.861,52.609,20.47\H,0,43.92,5
 2.763,19.496\H,0,44.22,51.686,20.494\O,0,44.903,55.007,21.28\H,0,44.26
 6,55.375,21.929\H,0,44.605,54.073,21.245\O,0,50.128,42.549,23.285\H,0,
 49.838,41.858,23.923\H,0,50.917,42.89,23.772\O,0,42.855,56.234,22.648\
 H,0,42.395,55.369,22.692\H,0,42.197,56.756,22.14\O,0,38.316,50.809,22.
 443\H,0,38.015,50.482,23.32\H,0,37.722,50.295,21.857\O,0,37.371,52.957
 ,26.828\H,0,36.938,52.797,25.971\H,0,37.701,52.049,27.03\O,0,48.886,56
 .438,22.633\H,0,48.292,56.074,21.94\H,0,49.037,55.641,23.181\O,0,44.03
 4,58.281,24.111\H,0,43.777,57.456,23.641\H,0,45.012,58.192,24.092\O,0,
 41.986,58.705,25.971\H,0,42.738,58.615,25.344\H,0,41.287,59.017,25.354
 \O,0,49.921,52.777,20.125\H,0,49.419,52.183,20.743\H,0,50.466,52.078,1
 9.675\O,0,39.791,52.82,21.496\H,0,39.362,51.954,21.75\H,0,39.124,53.41
 7,21.934\O,0,39.815,57.731,30.024\H,0,40.373,58.318,29.459\H,0,39.027,
 57.654,29.43\O,0,46.925,58.097,23.744\H,0,47.221,58.825,23.141\H,0,47.
 527,57.387,23.425\O,0,47.221,56.009,20.496\H,0,46.378,55.576,20.799\H,
 0,46.827,56.831,20.112\O,0,38.874,55.022,33.87\H,0,39.527,54.78,33.182
 \H,0,38.086,55.185,33.297\\Version=ES64L-G16RevC.01\State=1-A\HF=-2353
 4.3416887\RMSD=2.719e-10\Dipole=20.1228407,-39.4244786,-62.3031709\Qua
 drupole=-243.3477587,-285.7611974,529.1089562,292.8357532,526.4641612,
 129.6852992\PG=C01 [X(C277H510N56O96S6)]\\@
 The archive entry for this job was punched.


 IF YOU'RE NOT PART OF THE SOLUTION,
 THEN YOU'RE PART OF THE PRECIPITATE.
 Job cpu time:       7 days 14 hours 41 minutes 16.1 seconds.
 Elapsed time:       0 days  2 hours 55 minutes 48.1 seconds.
 File lengths (MBytes):  RWF=  30665 Int=      0 D2E=      0 Chk=   3283 Scr=      1
 Normal termination of Gaussian 16 at Wed Jan 28 01:18:37 2026.
